Dimond Silicon

      18432 atoms
      0 bonds
      0 angles
      0 dihedrals
      0 impropers

      1 atom types
      0 bond types
      0 angle types
      0 dihedral types
      0 improper types

      0 206.933 xlo xhi
      0 88.7746 ylo yhi
      0 19.9121 zlo zhi

Atoms

      1   1         7.56275795685309     23.0735410322436     1.27645986658581   0  0  0
      2   1         6.12928887184953     25.1029869812891     1.29000224914212   0  0  0
      3   1         8.28462054913841     25.0993159049356     2.52212429579542   0  0  0
      4   1         4.68550749365235     21.0715361474833     1.28711469940013   0  0  0
      5   1         6.84089651669458     21.0678442958567     2.51926945010017   0  0  0
      6   1         3.25203499567588     23.0809322845891     1.30122106399081   0  0  0
      7   1         5.40739738366012      23.077222321187     2.53333092000946   0  0  0
      8   1         7.56275795635202     23.0735410308626     3.76547236777808   0  0  0
      9   1          1.8186199940208     25.1104152129607     1.31485215592925   0  0  0
      10   1         3.97395533498969     25.1066866535326      2.5469223835781   0  0  0
      11   1         6.12928887188262     25.1029869806068     3.77901474926704   0  0  0
      12   1         8.28462055020155     25.0993159048696     5.01113679654619   0  0  0
      13   1        0.374724451085848     21.0790062441304      1.3119097324414   0  0  0
      14   1         2.53011674106144      21.075256729663      2.5440058569905   0  0  0
      15   1         4.68550749294863     21.0715361473891     3.77612719922536   0  0  0
      16   1         6.84089651611561     21.0678442952481     5.00828195173145   0  0  0
      17   1         1.09667097901572     23.0846712231738     2.55814737715704   0  0  0
      18   1         3.25203499630589     23.0809322849822     3.79023356352259   0  0  0
      19   1         5.40739738282952     23.0772223207913     5.02234342010657   0  0  0
      20   1         1.81861999461501     25.1104152138512      3.8038646566042   0  0  0
      21   1         3.97395533536563     25.1066866537874     5.03593488409087   0  0  0
      22   1        0.374724451930288     21.0790062456459     3.80092223355902   0  0  0
      23   1         2.53011674183468      21.075256730515     5.03301835744232   0  0  0
      24   1         1.09667097895136     23.0846712235768     5.04715987837634   0  0  0
      25   1         7.56275795686817     23.0735410310672     6.25448486814192   0  0  0
      26   1         6.12928887227383     25.1029869801061     6.26802724869719   0  0  0
      27   1         8.28462054929957      25.099315904351     7.50014929568923   0  0  0
      28   1         4.68550749346932     21.0715361468412     6.26513969997276   0  0  0
      29   1         6.84089651609322     21.0678442945781     7.49729445155207   0  0  0
      30   1          3.2520349960996     23.0809322848068     6.27924606371303   0  0  0
      31   1         5.40739738241095     23.0772223199099     7.51135592062046   0  0  0
      32   1         7.56275795660746     23.0735410302095     8.74349736744202   0  0  0
      33   1            1.81861999457     25.1104152138977     6.29287715665964   0  0  0
      34   1         3.97395533488906     25.1066866528623     7.52494738468933   0  0  0
      35   1         6.12928887191569      25.102986979377     8.75703974881605   0  0  0
      36   1         8.28462054959302     25.0993159050866     9.98916179659509   0  0  0
      37   1        0.374724452133277     21.0790062462921     6.28993473330036   0  0  0
      38   1         2.53011674116728     21.0752567298243     7.52203085691447   0  0  0
      39   1         4.68550749197146     21.0715361466168     8.75415220015902   0  0  0
      40   1         6.84089651526234     21.0678442945822     9.98630695161969   0  0  0
      41   1         1.09667097936986     23.0846712238473     7.53617237868738   0  0  0
      42   1         3.25203499536014     23.0809322848074     8.76825856474032   0  0  0
      43   1         5.40739738221039     23.0772223202569     10.0003684206508   0  0  0
      44   1          1.8186199941173     25.1104152145897     8.78188965849155   0  0  0
      45   1          3.9739553350455      25.106686653324     10.0139598850283   0  0  0
      46   1        0.374724451718331     21.0790062457527      8.7789472333907   0  0  0
      47   1          2.5301167404349     21.0752567299113     10.0110433580633   0  0  0
      48   1         1.09667097803873     23.0846712235325     10.0251848784999   0  0  0
      49   1         7.56275795705189     23.0735410313749     11.2325098674378   0  0  0
      50   1         6.12928887144429     25.1029869798516     11.2460522491792   0  0  0
      51   1          8.2846205487448     25.0993159043667     12.4781742962669   0  0  0
      52   1         4.68550749183999     21.0715361468447     11.2431647011738   0  0  0
      53   1         6.84089651489027      21.067844295304     12.4753194508778   0  0  0
      54   1         3.25203499484293     23.0809322850655     11.2572710649319   0  0  0
      55   1         5.40739738257149     23.0772223208279     12.4893809207883   0  0  0
      56   1         7.56275795666557     23.0735410308103     13.7215223663725   0  0  0
      57   1         1.81861999345019     25.1104152144785      11.270902158637   0  0  0
      58   1         3.97395533428877     25.1066866535046     12.5029723861756   0  0  0
      59   1         6.12928887122018     25.1029869805425     13.7350647486265   0  0  0
      60   1         8.28462054976304     25.0993159056843     14.9671867967754   0  0  0
      61   1        0.374724450291074     21.0790062455298     11.2679597335562   0  0  0
      62   1         2.53011673951714     21.0752567296453     12.5000558572177   0  0  0
      63   1          4.6855074910745     21.0715361470384     13.7321772001039   0  0  0
      64   1         6.84089651569425     21.0678442948601      14.964331950814   0  0  0
      65   1         1.09667097755846      23.084671223236     12.5141973793072   0  0  0
      66   1         3.25203499497014     23.0809322844401     13.7462835645754   0  0  0
      67   1         5.40739738176826      23.077222320472     14.9783934203465   0  0  0
      68   1         1.81861999312753     25.1104152139271     13.7599146580511   0  0  0
      69   1         3.97395533432451     25.1066866531311     14.9919848858502   0  0  0
      70   1        0.374724448995188     21.0790062449598     13.7569722329498   0  0  0
      71   1         2.53011673874737     21.0752567289415     14.9890683573969   0  0  0
      72   1         1.09667097703117     23.0846712224398     15.0032098789857   0  0  0
      73   1         7.56275795638306     23.0735410313633     16.2105348655747   0  0  0
      74   1         6.12928887166579     25.1029869806292     16.2240772487621   0  0  0
      75   1         8.28462054920785     25.0993159051364     17.4561992956246   0  0  0
      76   1         4.68550749158846     21.0715361465158     16.2211897003797   0  0  0
      77   1         6.84089651510122     21.0678442956902     17.4533444500923   0  0  0
      78   1         3.25203499420498     23.0809322838724     16.2352960643809   0  0  0
      79   1          5.4073973823976      23.077222320559     17.4674059199538   0  0  0
      80   1         7.56275795682565     23.0735410318401     18.6995473658573   0  0  0
      81   1         1.81861999354212     25.1104152131332     16.2489271569625   0  0  0
      82   1         3.97395533442725      25.106686652924     17.4809973863334   0  0  0
      83   1          6.1292888715968     25.1029869811111     18.7130897485935   0  0  0
      84   1         8.28462054933696     25.0993159054398    0.033111795772231   0  0  0
      85   1        0.374724449331944     21.0790062443634      16.245984732827   0  0  0
      86   1         2.53011673902741     21.0752567286484     17.4780808576617   0  0  0
      87   1          4.6855074912905     21.0715361464253     18.7102022002594   0  0  0
      88   1         6.84089651634112     21.0678442957741   0.0302569503285815   0  0  0
      89   1         1.09667097742031     23.0846712227391      17.492222377944   0  0  0
      90   1         3.25203499477016     23.0809322835174     18.7243085640059   0  0  0
      91   1         5.40739738226078     23.0772223211144   0.0443184199397469   0  0  0
      92   1         1.81861999345902     25.1104152135558     18.7379396569401   0  0  0
      93   1         3.97395533498667     25.1066866536933   0.0579098845839018   0  0  0
      94   1        0.374724450218071     21.0790062439239     18.7349972326433   0  0  0
      95   1         2.53011673975604     21.0752567292964   0.0549933574061454   0  0  0
      96   1         1.09667097750342     23.0846712219453   0.0691348782069032   0  0  0
      97   1         7.57300478355664     29.1651923186101     1.29216225115661   0  0  0
      98   1         6.13957549733516     31.1999792006437     1.30572896472385   0  0  0
      99   1         8.29481937114357     31.1963106647192     2.53772670053593   0  0  0
      100   1         4.69585693298799     27.1377634966262     1.30352668233843   0  0  0
      101   1         6.85116115406855     27.1340741276314     2.53559394946434   0  0  0
      102   1         3.26245416293804     29.1725790271083      1.3171217300432   0  0  0
      103   1         5.41773050458567     29.1688713001555      2.5491392332633   0  0  0
      104   1         7.57300478451316     29.1651923186896     3.78117475247219   0  0  0
      105   1         1.82908146711419     31.2074024472861     1.33078717032498   0  0  0
      106   1         3.98432956180633     31.2036763694064     2.56275936874411   0  0  0
      107   1         6.13957549893333     31.1999792009223     3.79474146557188   0  0  0
      108   1         8.29481937114284     31.1963106650209     5.02673919946831   0  0  0
      109   1        0.385242771876129     27.1452289355094     1.32845842274519   0  0  0
      110   1         2.54055079502889     27.1414816660041     2.56049210658763   0  0  0
      111   1         4.69585693349734     27.1377634957957     3.79253918101107   0  0  0
      112   1         6.85116115451956     27.1340741270428      5.0246064505933   0  0  0
      113   1         1.10717578122006     29.1763156907812       2.574128411491   0  0  0
      114   1          3.2624541623011     29.1725790263137     3.80613422992012   0  0  0
      115   1         5.41773050549889     29.1688713000858     5.03815173453212   0  0  0
      116   1         1.82908146691981     31.2074024476152     3.81979966946806   0  0  0
      117   1         3.98432956223755     31.2036763694546     5.05177186818368   0  0  0
      118   1        0.385242772180341     27.1452289358673     3.81747092352731   0  0  0
      119   1          2.5405507955945     27.1414816657579     5.04950460602292   0  0  0
      120   1          1.1071757818628     29.1763156904483     5.06314091159072   0  0  0
      121   1         7.57300478390463      29.165192318238     6.27018725186382   0  0  0
      122   1         6.13957549734917     31.1999792003391     6.28375396444899   0  0  0
      123   1         8.29481937094816     31.1963106658379     7.51575170073884   0  0  0
      124   1         4.69585693321562     27.1377634960397     6.28155168194027   0  0  0
      125   1         6.85116115353772     27.1340741266044     7.51361895000261   0  0  0
      126   1         3.26245416297357     29.1725790262191     6.29514673121691   0  0  0
      127   1         5.41773050467337     29.1688712994829     7.52716423374009   0  0  0
      128   1         7.57300478339521     29.1651923188085     8.75919975304465   0  0  0
      129   1         1.82908146681621     31.2074024469377     6.30881216940514   0  0  0
      130   1         3.98432956112339     31.2036763684215      7.5407843682289   0  0  0
      131   1         6.13957549836025     31.1999792005139     8.77276646552363   0  0  0
      132   1         8.29481937109396     31.1963106650334     10.0047641997236   0  0  0
      133   1        0.385242772987239     27.1452289360612     6.30648342319606   0  0  0
      134   1         2.54055079543344     27.1414816658257     7.53851710664814   0  0  0
      135   1         4.69585693357351     27.1377634948095     8.77056418253926   0  0  0
      136   1          6.8511611542885     27.1340741265968      10.002631450978   0  0  0
      137   1         1.10717578214406     29.1763156907657      7.5521534125731   0  0  0
      138   1         3.26245416248807     29.1725790258548     8.78415923010349   0  0  0
      139   1         5.41773050480701     29.1688712994408     10.0161767343936   0  0  0
      140   1         1.82908146651575     31.2074024475785      8.7978246693721   0  0  0
      141   1         3.98432956137477     31.2036763678856     10.0297968683772   0  0  0
      142   1        0.385242773046979     27.1452289368206     8.79549592372725   0  0  0
      143   1          2.5405507951016     27.1414816656631     10.0275296079651   0  0  0
      144   1         1.10717578148199     29.1763156913324      10.041165912573   0  0  0
      145   1         7.57300478333969     29.1651923187239     11.2482122508396   0  0  0
      146   1         6.13957549728767     31.1999792002506     11.2617789640699   0  0  0
      147   1         8.29481937113618     31.1963106657546     12.4937767003054   0  0  0
      148   1         4.69585693255511     27.1377634959271     11.2595766830852   0  0  0
      149   1         6.85116115359271     27.1340741267287     12.4916439501621   0  0  0
      150   1         3.26245416202934     29.1725790254336     11.2731717309483   0  0  0
      151   1         5.41773050441053     29.1688712992832     12.5051892340503   0  0  0
      152   1          7.5730047840189     29.1651923193881     13.7372247517234   0  0  0
      153   1         1.82908146603405     31.2074024470296      11.286837171131   0  0  0
      154   1         3.98432956069278     31.2036763680282     12.5188093681955   0  0  0
      155   1         6.13957549766003     31.1999792005354     13.7507914649408   0  0  0
      156   1          8.2948193703012     31.1963106652825     14.9827891990473   0  0  0
      157   1        0.385242772073864     27.1452289368138     11.2845084239349   0  0  0
      158   1         2.54055079493724     27.1414816657668     12.5165421077601   0  0  0
      159   1         4.69585693298731     27.1377634958545     13.7485891830984   0  0  0
      160   1         6.85116115448254      27.134074127586     14.9806564506887   0  0  0
      161   1         1.10717578130878     29.1763156910453     12.5301784133391   0  0  0
      162   1         3.26245416144628     29.1725790256611     13.7621842309673   0  0  0
      163   1         5.41773050455666     29.1688713002375     14.9942017344599   0  0  0
      164   1         1.82908146540799      31.207402447647     13.7758496712067   0  0  0
      165   1         3.98432956054012     31.2036763683797     15.0078218678854   0  0  0
      166   1        0.385242771367355     27.1452289363915     13.7735209241574   0  0  0
      167   1         2.54055079419673      27.141481666285     15.0055546081012   0  0  0
      168   1         1.10717578039941      29.176315690989     15.0191909139925   0  0  0
      169   1          7.5730047836947     29.1651923188199       16.22623725051   0  0  0
      170   1         6.13957549682344      31.199979200597      16.239803964126   0  0  0
      171   1         8.29481937069628     31.1963106656577      17.471801699642   0  0  0
      172   1         4.69585693231567     27.1377634961685     16.2376016837436   0  0  0
      173   1          6.8511611545309     27.1340741272495     17.4696689496657   0  0  0
      174   1         3.26245416189792     29.1725790270716     16.2511967308641   0  0  0
      175   1          5.4177305047416     29.1688712997859     17.4832142331468   0  0  0
      176   1         7.57300478316537     29.1651923197814      18.715249751184   0  0  0
      177   1         1.82908146565052     31.2074024470345     16.2648621714637   0  0  0
      178   1         3.98432956053052     31.2036763686564     17.4968343676776   0  0  0
      179   1         6.13957549739393     31.1999792008979     18.7288164649993   0  0  0
      180   1         8.29481937005284     31.1963106642514   0.0487141993293512   0  0  0
      181   1        0.385242771404442     27.1452289362105     16.2625334245468   0  0  0
      182   1         2.54055079440173     27.1414816657649     17.4945671070986   0  0  0
      183   1         4.69585693327766     27.1377634962658     18.7266141827816   0  0  0
      184   1         6.85116115517607     27.1340741279827   0.0465814503582577   0  0  0
      185   1         1.10717578097915     29.1763156908898     17.5082034141796   0  0  0
      186   1         3.26245416248964     29.1725790265922     18.7402092298381   0  0  0
      187   1          5.4177305048622     29.1688712999512   0.0601267339062446   0  0  0
      188   1         1.82908146593983     31.2074024477771     18.7538746709746   0  0  0
      189   1         3.98432956211188     31.2036763692412   0.0737468685017639   0  0  0
      190   1        0.385242772035761     27.1452289355629     18.7515459233696   0  0  0
      191   1         2.54055079475141     27.1414816663754   0.0714796066621666   0  0  0
      192   1         1.10717578115182     29.1763156909616    0.085115911823034   0  0  0
      193   1          7.5831784659205     35.2622302048862     1.30790568076198   0  0  0
      194   1         6.14978325456425     37.2970395285599     1.32165184701723   0  0  0
      195   1         8.30493590210094     37.2933741649822       2.553499748124   0  0  0
      196   1         4.70617646522132     33.2347851935747     1.31938334106815   0  0  0
      197   1         6.86139161683559     33.2310985841321     2.55132491069938   0  0  0
      198   1         3.27280845140232     35.2696109450712     1.33313142511824   0  0  0
      199   1         5.42799451430404     35.2659062039175     2.56502162979868   0  0  0
      200   1         7.58317846422307     35.2622302058888     3.79691818006914   0  0  0
      201   1         1.83947184099663     37.3044566687553     1.34697946259449   0  0  0
      202   1         3.99462855604381     37.3007336227909     2.57882116251403   0  0  0
      203   1         6.14978325243094     37.2970395292526     3.81066434537318   0  0  0
      204   1         8.30493590223896     37.2933741661332     5.04251224933346   0  0  0
      205   1        0.395739850025811     33.2422451101396     1.34453235065355   0  0  0
      206   1         2.55095923613992     33.2385005986322     2.57646242139345   0  0  0
      207   1         4.70617646515531     33.2347851940375     3.80839584170053   0  0  0
      208   1         6.86139161615962      33.231098584063     5.04033740985138   0  0  0
      209   1          1.1176203065552     35.2733447059887     2.59025608587448   0  0  0
      210   1         3.27280845211593      35.269610945541     3.82214392624521   0  0  0
      211   1         5.42799451323434     35.2659062038331     5.05403412964224   0  0  0
      212   1          1.8394718414409     37.3044566691023     3.83599196281757   0  0  0
      213   1         3.99462855566121     37.3007336238074     5.06783366304053   0  0  0
      214   1        0.395739850022399     33.2422451102527     3.83354484993843   0  0  0
      215   1         2.55095923519264     33.2385005985738     5.06547492140052   0  0  0
      216   1         1.11762030662418     35.2733447052946     5.07926858516079   0  0  0
      217   1         7.58317846500023     35.2622302063349     6.28593068096969   0  0  0
      218   1         6.14978325386658     37.2970395298252     6.29967684683302   0  0  0
      219   1         8.30493590125214     37.2933741663368     7.53152474844362   0  0  0
      220   1         4.70617646411527     33.2347851933265     6.29740834198846   0  0  0
      221   1         6.86139161635234     33.2310985840304     7.52934991047524   0  0  0
      222   1         3.27280845101815     35.2696109445811     6.31115642460614   0  0  0
      223   1         5.42799451439083     35.2659062037947     7.54304663055745   0  0  0
      224   1         7.58317846402992     35.2622302058367     8.77494318019395   0  0  0
      225   1         1.83947183985534     37.3044566689016      6.3250044627163   0  0  0
      226   1         3.99462855599514     37.3007336231788     7.55684616210625   0  0  0
      227   1         6.14978325194467     37.2970395285051     8.78868934588042   0  0  0
      228   1          8.3049359023266     37.2933741657907     10.0205372493031   0  0  0
      229   1        0.395739850100578     33.2422451101802     6.32255735088688   0  0  0
      230   1         2.55095923507893     33.2385005984428     7.55448742178363   0  0  0
      231   1         4.70617646439562      33.234785192836     8.78642084234695   0  0  0
      232   1         6.86139161594536     33.2310985839169     10.0183624098157   0  0  0
      233   1         1.11762030598618     35.2733447064478     7.56828108495042   0  0  0
      234   1         3.27280845105856     35.2696109456703     8.80016892420109   0  0  0
      235   1         5.42799451267419     35.2659062030342     10.0320591302834   0  0  0
      236   1         1.83947184115978     37.3044566692793     8.81401696332953   0  0  0
      237   1         3.99462855492264      37.300733622495     10.0458586620251   0  0  0
      238   1        0.395739849611937     33.2422451109285     8.81156985033062   0  0  0
      239   1         2.55095923456414     33.2385005981989     10.0434999227619   0  0  0
      240   1         1.11762030528308     35.2733447063421     10.0572935855364   0  0  0
      241   1         7.58317846504021     35.2622302052787     11.2639556798161   0  0  0
      242   1         6.14978325350616     37.2970395285125     11.2777018465908   0  0  0
      243   1         8.30493590243719     37.2933741647924     12.5095497471569   0  0  0
      244   1         4.70617646366755     33.2347851924585     11.2754333421435   0  0  0
      245   1         6.86139161612281     33.2310985834126     12.5073749102864   0  0  0
      246   1         3.27280845067994     35.2696109433223     11.2891814242139   0  0  0
      247   1         5.42799451348003     35.2659062031173     12.5210716305865   0  0  0
      248   1         7.58317846508534     35.2622302046295     13.7529681786882   0  0  0
      249   1         1.83947184059115     37.3044566686633     11.3030294621941   0  0  0
      250   1         3.99462855569823     37.3007336215362        12.5348711618   0  0  0
      251   1         6.14978325274653     37.2970395272242     13.7667143456248   0  0  0
      252   1         8.30493590349457      37.293374165058     14.9985622483471   0  0  0
      253   1        0.395739849621729     33.2422451103721     11.3005823516401   0  0  0
      254   1         2.55095923420466     33.2385005981624     12.5325124228546   0  0  0
      255   1         4.70617646368172     33.2347851921567      13.764445841861   0  0  0
      256   1         6.86139161558449     33.2310985837428     14.9963874096441   0  0  0
      257   1         1.11762030641704     35.2733447061556     12.5463060863598   0  0  0
      258   1         3.27280845115321     35.2696109442326     13.7781939260649   0  0  0
      259   1         5.42799451332262     35.2659062023533     15.0100841291796   0  0  0
      260   1         1.83947184200161     37.3044566682701     13.7920419642756   0  0  0
      261   1         3.99462855664534     37.3007336215023     15.0238836622997   0  0  0
      262   1        0.395739849150238     33.2422451108869     13.7895948513703   0  0  0
      263   1         2.55095923478991     33.2385005981964      15.021524923827   0  0  0
      264   1         1.11762030684503     35.2733447059034     15.0353185862881   0  0  0
      265   1         7.58317846645859      35.262230205314     16.2419806805582   0  0  0
      266   1         6.14978325523091     37.2970395282004     16.2557268465586   0  0  0
      267   1         8.30493590260867     37.2933741648865     17.4875747479279   0  0  0
      268   1         4.70617646379829      33.234785192549     16.2534583414028   0  0  0
      269   1         6.86139161654752     33.2310985840184     17.4853999098146   0  0  0
      270   1         3.27280845124726     35.2696109438495     16.2672064252761   0  0  0
      271   1          5.4279945149471     35.2659062030904     17.4990966292539   0  0  0
      272   1         7.58317846566277     35.2622302048171     18.7309931802429   0  0  0
      273   1         1.83947184189886     37.3044566683889     16.2810544625252   0  0  0
      274   1         3.99462855728396     37.3007336216904     17.5128961625487   0  0  0
      275   1         6.14978325358097     37.2970395272446     18.7447393454348   0  0  0
      276   1         8.30493590342411     37.2933741652755   0.0644872492320564   0  0  0
      277   1        0.395739849509937     33.2422451102495     16.2786073517995   0  0  0
      278   1         2.55095923487471     33.2385005985752      17.510537422512   0  0  0
      279   1          4.7061764647825     33.2347851931806     18.7424708407121   0  0  0
      280   1         6.86139161652962     33.2310985838581   0.0623124093349063   0  0  0
      281   1         1.11762030652257     35.2733447060871     17.5243310863591   0  0  0
      282   1         3.27280845215181      35.269610945622     18.7562189264852   0  0  0
      283   1         5.42799451440388     35.2659062033116    0.076009129520188   0  0  0
      284   1         1.83947184258272     37.3044566696525     18.7700669634906   0  0  0
      285   1         3.99462855711882     37.3007336224324   0.0898086630858472   0  0  0
      286   1        0.395739849732339     33.2422451105528     18.7676198508178   0  0  0
      287   1          2.5509592357896     33.2385005991316   0.0874499228855587   0  0  0
      288   1         1.11762030629831     35.2733447060964    0.101243586030006   0  0  0
      289   1         7.59327262139074     41.3593431516489     1.32394775594952   0  0  0
      290   1         6.15991179237857     43.3941754258754     1.33792918960309   0  0  0
      291   1         8.31497371527546     43.3905131389058     2.56961720140285   0  0  0
      292   1          4.7164191335907     39.3318686673749     1.33550828697024   0  0  0
      293   1         6.87154253757377     39.3281852265005     2.56730153011394   0  0  0
      294   1         3.28308604088289     41.3667177184334     1.34947806287161   0  0  0
      295   1         5.43818021973874     41.3630159703223     2.58121900543578   0  0  0
      296   1         7.59327262215916     41.3593431524819     3.81296025722113   0  0  0
      297   1         1.84978339503571     43.4015867825476     1.36356520470822   0  0  0
      298   1         4.00484831420914     43.3978665875252     2.59525368211965   0  0  0
      299   1          6.1599117929788     43.3941754274152     3.82694169077478   0  0  0
      300   1         8.31497371528703     43.3905131381276     5.05862970155275   0  0  0
      301   1        0.406166689954883     39.3393224627131      1.3609343666759   0  0  0
      302   1         2.56129382888071     39.3355810164763     2.59272833587992   0  0  0
      303   1           4.716419132351     39.3318686674696     3.82452078581931   0  0  0
      304   1         6.87154253689788     39.3281852268383     5.05631403069353   0  0  0
      305   1         1.12799020524611      41.370448511031     2.60674851186391   0  0  0
      306   1         3.28308604033783     41.3667177178051     3.83849056197153   0  0  0
      307   1         5.43818022021224     41.3630159713749     5.07023150542166   0  0  0
      308   1         1.84978339454036     43.4015867816837     3.85257770355309   0  0  0
      309   1         4.00484831470091     43.3978665881308     5.08426618276416   0  0  0
      310   1        0.406166690303453     39.3393224621318     3.84994686815121   0  0  0
      311   1         2.56129382900736     39.3355810162168     5.08174083505295   0  0  0
      312   1         1.12799020449313     41.3704485107445     5.09576101126597   0  0  0
      313   1         7.59327262098784     41.3593431520178     6.30197275648994   0  0  0
      314   1         6.15991179201909     43.3941754264612     6.31595419066756   0  0  0
      315   1         8.31497371415117     43.3905131387954     7.54764220344284   0  0  0
      316   1         4.71641913298918     39.3318686686868     6.31353328592823   0  0  0
      317   1         6.87154253589548      39.328185226907     7.54532653004843   0  0  0
      318   1         3.28308604120807     41.3667177188976     6.32750306276047   0  0  0
      319   1         5.43818021878088     41.3630159702291     7.55924400533269   0  0  0
      320   1         7.59327262027402     41.3593431524675     8.79098525838686   0  0  0
      321   1         1.84978339493439      43.401586781937     6.34159020393271   0  0  0
      322   1         4.00484831408527      43.397866587773     7.57327868219834   0  0  0
      323   1           6.159911791309     43.3941754270314     8.80496669139746   0  0  0
      324   1         8.31497371335057     43.3905131384888     10.0366547027598   0  0  0
      325   1        0.406166689273066      39.339322462945      6.3389593669161   0  0  0
      326   1         2.56129382872967     39.3355810166412     7.57075333589429   0  0  0
      327   1         4.71641913204596     39.3318686668446     8.80254578583572   0  0  0