LAMMPS (7 Aug 2019)
Running on 32 partitions of processors
Setting up regular NEB ...
Step MaxReplicaForce MaxAtomForce GradV0 GradV1 GradVc EBF EBR RDT RD1 PE1 RD2 PE2 ... RDN PEN
0    1.7154908   0.17394268 2.7255464e-05 3.0018473e-05    1.7151882   0.46397832   0.48787284    14.223575            0  -81013.7132523766 0.0322580645161  -81013.7046355378 0.0645161290323  -81013.6814443011 0.0967741935484  -81013.6476064454 0.129032258065   -81013.606728252 0.161290322581  -81013.5618247266 0.193548387097  -81013.5152803741 0.225806451613  -81013.4690247143 0.258064516129  -81013.4246461152 0.290322580645  -81013.3834399938 0.322580645161  -81013.3464813116 0.354838709677  -81013.3146113603 0.387096774194  -81013.2884859094 0.41935483871  -81013.2686235841 0.451612903226  -81013.2554337402 0.483870967742  -81013.2492740588 0.516129032258  -81013.2503246941 0.548387096774  -81013.2584927662 0.58064516129  -81013.2735077902 0.612903225806  -81013.2950495734 0.645161290323  -81013.3227718967 0.677419354839  -81013.3562654919 0.709677419355  -81013.3949290955 0.741935483871  -81013.4378978793 0.774193548387  -81013.4841073135 0.806451612903  -81013.5322811908 0.838709677419  -81013.5808323813 0.870967741935  -81013.6276993473 0.903225806452   -81013.670174966 0.935483870968  -81013.7049670672 0.967741935484  -81013.7284998674            1  -81013.7371468964 
100   0.15129902  0.010901712 6.879032e-06 7.3848746e-06   0.14266899  0.023235118  0.047129637    14.350506            0  -81013.7132523778 0.0320770893628  -81013.7124012453 0.0641784149048  -81013.7103744302 0.0963219575651   -81013.708238026 0.128520966619  -81013.7067860373 0.160779442098  -81013.7059475148 0.193089585399  -81013.7050245542 0.225431286193  -81013.7033114444 0.257775801847  -81013.7004663362 0.290097328908  -81013.6968092994 0.322391952461  -81013.6933493583 0.354677173232  -81013.6909999821 0.386971013376  -81013.6900172602 0.419251099518  -81013.6900889982 0.45152798485   -81013.690587405 0.483816744104  -81013.6908902682 0.51612112973  -81013.6909203677 0.548426792905  -81013.6913655206 0.580721809236  -81013.6928940143 0.613009326216  -81013.6957368528 0.645304277386  -81013.6997515733 0.67762471513  -81013.7043692608 0.709975175562  -81013.7087514965 0.74233888709  -81013.7123401323 0.774686599188   -81013.715286621 0.806996058022  -81013.7181613283 0.839260741602  -81013.7214809771 0.87148300402   -81013.725470623 0.903665593336  -81013.7298037436 0.935809621825  -81013.7336590568 0.967917442258  -81013.7362475092            1  -81013.7371468968 
200  0.026286363 0.00091176581 4.8812121e-06 5.2131597e-06 0.0090913095 0.0020220035  0.025916521    14.463674            0  -81013.7132523761 0.0320021575711  -81013.7127290483 0.0640204009201  -81013.7116609738 0.0960742342613  -81013.7112303726 0.128179444587  -81013.7120893335 0.160348559247  -81013.7137582472 0.192575404698  -81013.7154416931 0.224850640933  -81013.7164164709 0.257160511474  -81013.7163338513 0.289476196938  -81013.7153879044 0.321788906909  -81013.7144921803 0.35410855913   -81013.714684278 0.38645316852  -81013.7158854553 0.418830939279  -81013.7176144854 0.451247258868  -81013.7192877242 0.48369913778  -81013.7202008325 0.516171407606   -81013.720120805 0.548604172485  -81013.7196035281 0.581002712235  -81013.7197702226 0.613381377553  -81013.7209920381 0.645750203882  -81013.7229474067 0.678114355662   -81013.725259529 0.710475622784  -81013.7271955848 0.742828072003  -81013.7281920293 0.775164208451  -81013.7282391377 0.807438962077  -81013.7280237153 0.839653038724   -81013.728551244 0.871808317903  -81013.7301250081 0.903910250151  -81013.7324758416 0.935967361928  -81013.7348838306 0.967992505522  -81013.7365659177            1  -81013.7371468938 
300  0.013762311 0.00042307356 4.1549312e-06 4.392753e-06  0.005118133 0.0016644644   0.02555899    14.512716            0  -81013.7132523684 0.0320276747396   -81013.712764311 0.064067424635  -81013.7117888374 0.0961360452936   -81013.711587904 0.128247279343  -81013.7127444192 0.160410070982  -81013.7146828855 0.19261994419  -81013.7166358206 0.224872957239  -81013.7178524321 0.257161945369  -81013.7180018988 0.289467808214  -81013.7172191776 0.321777135696  -81013.7163905662 0.354099690263  -81013.7167329545 0.386446469736  -81013.7181366547 0.418828159104  -81013.7201209175 0.451254441578  -81013.7220132809 0.483720352112  -81013.7230509676 0.516209355522   -81013.722985942 0.548662434665  -81013.7222227196 0.581067053975  -81013.7220497218 0.613435399246  -81013.7230981635 0.645783749132  -81013.7249615634 0.678126071048   -81013.727222436 0.710469545407  -81013.7290627042 0.742809205846   -81013.729917467 0.775133061291  -81013.7297217432 0.807394133038  -81013.7290793399 0.839594243206  -81013.7292390812 0.871742889251   -81013.730578034 0.903849170408  -81013.7327372699 0.935920258499  -81013.7350112925 0.967966889404   -81013.736601139            1  -81013.7371468942 
400 0.0088046741 0.00026325115 3.6679676e-06 3.8605715e-06 0.0036933122 0.0015162957  0.025410814    14.553011            0  -81013.7132523762 0.0320579081987  -81013.7127764479 0.0641262875446  -81013.7118319341 0.0962202436896  -81013.7117360806 0.128352087539  -81013.7130098203 0.160526712579   -81013.715043833 0.192739810956  -81013.7170860999 0.224988708684  -81013.7183720963 0.257268321939  -81013.7185937176 0.289566280886  -81013.7178618375 0.321870217151  -81013.7170388128 0.354188619323  -81013.7174378682 0.386530262485  -81013.7189292011 0.418903734719    -81013.72102101 0.451316747016  -81013.7229798511 0.483762744361   -81013.724050866 0.516228118966  -81013.7240089121 0.548665478909  -81013.7231678812 0.581058279817  -81013.7228293181 0.613416160051  -81013.7238081195 0.645752927438  -81013.7256485663 0.678081180719  -81013.7279016698 0.710407443687  -81013.7297116229 0.74272816793  -81013.7305301101 0.77503485908  -81013.7302788796 0.807290845053  -81013.7294797271 0.839493132857  -81013.7294797509 0.87165184655  -81013.7307386934 0.903775284844  -81013.7328276755 0.935868230975  -81013.7350564963 0.967939980029  -81013.7366139682            1  -81013.7371468945 
500 0.0060973383 0.0001807836 3.2906494e-06 3.4513083e-06 0.0029913989 0.0014343908  0.025328915    14.587502            0  -81013.7132523775 0.0320909837838  -81013.7127820851 0.0641909249819  -81013.7118513993 0.0963130523532  -81013.7118179867 0.128468259414  -81013.7131496376 0.160658106739  -81013.7152262612 0.192878632142  -81013.7173048599 0.225127971529  -81013.7186151455 0.25740265881  -81013.7188666606 0.289694384463  -81013.7181589049 0.321992797781  -81013.7173367106 0.354304814789  -81013.7177684529 0.38663737601  -81013.7193086589 0.41899658496  -81013.7214531303 0.451387821801  -81013.7234317889 0.48380459231  -81013.7245100311 0.516236549326  -81013.7244841818 0.548647911969  -81013.7236207369 0.581021893567  -81013.7231923175 0.613366156854  -81013.7241354803 0.645691505195  -81013.7259670375 0.678007641384  -81013.7282159099 0.710319449158  -81013.7300082532 0.742624249317  -81013.7308104136 0.774916498678  -81013.7305447147 0.807168774618  -81013.7296783828 0.839376884017  -81013.7295930194 0.871549315251  -81013.7308172838 0.903693125063  -81013.7328711444 0.935810986201   -81013.735079219 0.967910600019  -81013.7366207057            1   -81013.737146902 
600  0.004561428 0.0001319659 3.0178841e-06 3.1552164e-06 0.0018874195 0.0013919306  0.025286445    14.614028            0  -81013.7132523772 0.0321195126062  -81013.7127848519 0.0642466151685  -81013.7118604466 0.0963928623376   -81013.711864577 0.12856794075  -81013.7132257187 0.160771331475  -81013.7153215198 0.192999322123  -81013.7174141469 0.225250522822  -81013.7187312671 0.257522487897  -81013.7189948995 0.289809322329  -81013.7182993841 0.322102442235  -81013.7174781183 0.354407580983  -81013.7179300529 0.386730435669  -81013.7194976369 0.419075284933  -81013.7216673022 0.451445803989   -81013.723649233 0.483836143347   -81013.724726143 0.516238320632  -81013.7247093323 0.54862484171  -81013.7238422345 0.580980373834  -81013.7233674574 0.61331118851  -81013.7242928309 0.645625911854  -81013.7261208311 0.677931852996  -81013.7283666584 0.710232558225  -81013.7301478781 0.742525840234   -81013.730941169 0.774807966558  -81013.7306726811 0.807058169467  -81013.7297781482 0.839272201674  -81013.7296481028 0.87145731984  -81013.7308577583 0.903619406111  -81013.7328936421 0.935759633959  -81013.7350919465 0.967884268363  -81013.7366247043            1  -81013.7371468917 
700 0.0035076286 9.8066776e-05 2.7934288e-06 2.9112899e-06 0.0017526863 0.0013867406   0.02528126    14.636948            0  -81013.7132523705 0.0321450024478   -81013.712786599 0.0642963543089  -81013.7118656299 0.0964640620057  -81013.7118969498 0.12865660065  -81013.7132768298 0.160872197634  -81013.7153832394 0.19310731171  -81013.7174817659 0.225360808402  -81013.7187991959 0.257630871739   -81013.719068214 0.289913321262  -81013.7183804178 0.322201146523   -81013.717560391 0.354499194266  -81013.7180275657 0.386812269835   -81013.719613652 0.419143241464  -81013.7217978025 0.451494493281  -81013.7237776143 0.483860922476  -81013.7248502549 0.516236324744  -81013.7248391325 0.548599601182  -81013.7239737347 0.580937484649  -81013.7234709406 0.613255197562  -81013.7243860597 0.64555972604  -81013.7262125993 0.677856434634  -81013.7284559453 0.710147813081  -81013.7302285755 0.742431985615  -81013.7310155364 0.774706443516  -81013.7307475371 0.806955497637  -81013.7298387536 0.839175357368  -81013.7296810909 0.871372308469  -81013.7308838427 0.903551190171  -81013.7329086289 0.935712056683  -81013.7351013785 0.967859864875  -81013.7366278937            1  -81013.7371468899 
800 0.0027159876 7.2347803e-05 2.5908213e-06 2.6911651e-06 0.0016589951 0.0013833802  0.025277897    14.658642            0  -81013.7132523792 0.0321685287786  -81013.7127879563 0.0643422088074  -81013.7118689989 0.0965296295386  -81013.7119224387 0.128738136568  -81013.7133160587 0.160965103449   -81013.715429109 0.193207104089  -81013.7175296831 0.225463102721  -81013.7188438967 0.257731635519  -81013.7191148745 0.29000987198  -81013.7184326417 0.322292270861  -81013.7176140884 0.354582997556  -81013.7180941983 0.386886188252  -81013.7196943785 0.419203565647  -81013.7218878775 0.451536495912  -81013.7238631043 0.483880614132  -81013.7249298072 0.516231128073  -81013.7249225272 0.548572203665   -81013.724060845 0.580892929576  -81013.7235394462 0.613197708416  -81013.7244485175 0.645492228463   -81013.726274823 0.67778022617  -81013.7285161028 0.710063331716  -81013.7302811569 0.742339868081  -81013.7310626555 0.774608209114  -81013.7307965038 0.806856766568  -81013.7298798582 0.839082494544  -81013.7297035024 0.8712908532  -81013.7309033157 0.903485736185  -81013.7329205804 0.935666339581  -81013.7351098946 0.967836401825  -81013.7366309763            1  -81013.7371468955 
900 0.0022223955 5.3967912e-05 2.4354541e-06 2.5383971e-06 0.0015960233 0.0013812511  0.025275772    14.678035            0  -81013.7132523783 0.0321879733737  -81013.7127890596 0.0643800643512  -81013.7118711272 0.0965836894369  -81013.7119417745 0.12880524473  -81013.7133452456 0.161041617555  -81013.7154623871 0.193289468812   -81013.717562906 0.225547740043  -81013.7188721455 0.257815071809  -81013.7191429907 0.29008961918   -81013.718464734 0.322367079521  -81013.7176475521 0.35465114539  -81013.7181381173 0.386945496753  -81013.7197486448 0.419251016782  -81013.7219480454 0.451568352253  -81013.7239179556 0.483893747249  -81013.7249782014 0.516223418425  -81013.7249733507 0.548545541556  -81013.7241157009 0.58085141719  -81013.7235826923 0.613144872143  -81013.7244888887 0.64543065854  -81013.7263158385 0.677711288575  -81013.7285556639 0.709987762381  -81013.7303142612 0.742258498128  -81013.7310909425 0.774522439877  -81013.7308270776 0.806771043764  -81013.7299063977 0.839002075631  -81013.7297182729 0.871220348918  -81013.7309177401 0.903428994342  -81013.7329303158 0.935626638841  -81013.7351177157 0.96781600877  -81013.7366339852            1  -81013.7371468994 
1000 0.0019022831 4.1889043e-05 2.2842913e-06 2.3592969e-06 0.0015558324  0.001379938  0.025274455    14.693804            0  -81013.7132523809 0.0322020573878  -81013.7127899439 0.0644074454055   -81013.711872443 0.0966227171611  -81013.7119554012 0.12885356573  -81013.7133656135 0.161096670392  -81013.7154852307 0.193348776016   -81013.717584919 0.225608747707  -81013.7188890714 0.257875174275   -81013.719158884 0.290146856432  -81013.7184833974 0.322420410433  -81013.7176672549 0.354699232679  -81013.7181655103 0.386986722556  -81013.7197831919 0.419283218531  -81013.7219862424 0.451588917594   -81013.723951475 0.483900490632  -81013.7250059002 0.51621478739  -81013.7250024573 0.548522749477  -81013.7241481574 0.580817424219  -81013.7236083785 0.613102278018  -81013.7245137325 0.645381453986  -81013.7263417465 0.67765664866  -81013.7285807383 0.709928451706  -81013.7303342428 0.742195301705  -81013.7311068967 0.77445645897  -81013.7308450588 0.806705425798  -81013.7299224667 0.838940658772  -81013.7297275962 0.871166520057  -81013.7309279996 0.903385603325  -81013.7329379856 0.935596222069  -81013.7351244859 0.967800367934  -81013.7366367083            1  -81013.7371468976 
1100 0.0016387595 3.2580603e-05 2.1524874e-06 2.2174787e-06  0.001522479 0.0013788635  0.025273387    14.710048            0  -81013.7132523788 0.0322145251973  -81013.7127908842 0.0644316400349  -81013.7118735153 0.0966571089043  -81013.7119677025 0.128895980653  -81013.7133839008 0.161144882635  -81013.7155055869 0.193400677643   -81013.717604043 0.225662121706  -81013.7189022989 0.257927640026   -81013.719170486 0.290196549437  -81013.7184975166 0.322466307873  -81013.7176822937 0.354740079122  -81013.7181876978 0.387021045446  -81013.7198117633 0.419309115935    -81013.72201789 0.451604146505  -81013.7239782659 0.483903170837  -81013.7250263561 0.516203511396  -81013.7250239654 0.548498499109   -81013.724172944 0.580782845648  -81013.7236281158 0.613059736867  -81013.7245337229 0.645332820323  -81013.7263633285 0.677603126987  -81013.7286018496 0.709870919899  -81013.7303502215 0.742134610567  -81013.7311184542 0.77439365105  -81013.7308587859 0.806643270832  -81013.7299349836 0.83888261745  -81013.7297353231 0.871115660398  -81013.7309375797 0.903344533986  -81013.7329459148 0.935567370321  -81013.7351319721 0.96778551127  -81013.7366398394            1   -81013.737146902 
1200 0.0014483072 2.7569404e-05 2.0380659e-06 2.0949639e-06 0.0014977143  0.001378065   0.02527258    14.724854            0  -81013.7132523829 0.0322238706037  -81013.7127918021 0.0644497279641  -81013.7118743179 0.0966827140298  -81013.7119775364 0.128927369068  -81013.7133984974 0.161180398909  -81013.7155217982 0.193438812118  -81013.7176190608 0.225701259263  -81013.7189115946 0.257965938604  -81013.7191779529 0.290232504879   -81013.718507116 0.322499079522  -81013.7176925033 0.354768668279  -81013.7182037253 0.387044307735  -81013.7198328695 0.419325628052  -81013.7220414559 0.451612273887  -81013.7239976013 0.483901541246  -81013.7250397032 0.516191029072   -81013.725038008 0.548475853114  -81013.7241897121 0.580752075844  -81013.7236415561 0.613022696229  -81013.7245482249 0.645291013357  -81013.7263796226 0.67755760124  -81013.7286180804 0.709822507046  -81013.7303619066 0.742084082865  -81013.7311258471 0.774341842381  -81013.7308680752 0.806592280325   -81013.729943623 0.838835126003  -81013.7297411306 0.871074054966  -81013.7309456873 0.90331087187  -81013.7329532888 0.935543661524  -81013.7351393311 0.967773280645  -81013.7366430282            1  -81013.7371468982 
1300  0.001310902 2.374987e-05 1.9402409e-06 1.9908063e-06 0.0014792018 0.0013774416  0.025271965    14.738112            0  -81013.7132523687 0.0322305482266  -81013.7127926476 0.0644626065815  -81013.7118749271 0.0967008388753  -81013.7119852967 0.128949396795  -81013.7134100735 0.161205140559  -81013.7155347298 0.193465242839  -81013.7176309904 0.22572826838  -81013.7189182238 0.257992166115  -81013.7191828017 0.290256789857  -81013.7185137495 0.32252076796  -81013.7176995142 0.354787000114  -81013.7182153898 0.387058426572  -81013.7198485972 0.419334511208   -81013.722059191 0.451614780745   -81013.724011861 0.483896715969  -81013.7250485117 0.516178048163  -81013.7250472716 0.548455193605  -81013.7242011436 0.58072526986  -81013.7236507877 0.61299115389  -81013.7245589383 0.645255904264  -81013.7263921628 0.677519797109  -81013.7286308784 0.709782747288  -81013.7303707558 0.742043033206  -81013.7311306094 0.774300139995  -81013.7308744431 0.806551472125  -81013.7299495646 0.838797225608  -81013.7297455622 0.871040863252  -81013.7309525545 0.903283965975  -81013.7329600677 0.935524660475   -81013.735146355 0.967763458418  -81013.7366461463            1  -81013.7371468919 
1400 0.0011909027 2.0274655e-05 1.8549493e-06 1.8913403e-06 0.0014624243 0.0013768767  0.025271402    14.752386            0  -81013.7132523728 0.0322360011365  -81013.7127936299 0.0644730670488  -81013.7118754961 0.0967154279107  -81013.7119926899 0.12896688493   -81013.713421187 0.161224533723  -81013.7155472787 0.193485758136  -81013.7176425952 0.225749051222  -81013.7189240932 0.258012062024  -81013.7191866547 0.290274753394  -81013.7185194488 0.322536210596  -81013.7177054119 0.354799248954   -81013.718225728 0.38706673272  -81013.7198628552 0.419338024783  -81013.7220755608 0.451612590074  -81013.7240248139 0.483888065401  -81013.7250555957 0.516162216003  -81013.7250546949 0.548432570747  -81013.7242106277 0.580697217561  -81013.7236585007 0.612958938884   -81013.724568653 0.645220596471   -81013.726404053 0.677482249886  -81013.7286433542 0.709743729846  -81013.7303791184 0.742003223315  -81013.7311343266 0.77426010456  -81013.7308797691 0.806512551682  -81013.7299545152 0.838761200063  -81013.7297497392 0.871009331454  -81013.7309596224 0.903258356236  -81013.7329675644 0.935506520762   -81013.735154361 0.967754057608  -81013.7366498101            1  -81013.7371468977 
1500 0.0011081432 1.7814923e-05 1.7601149e-06 1.800399e-06 0.0014504559 0.0013764701  0.025270986     14.76431            0  -81013.7132523771 0.0322392705928  -81013.7127944575 0.0644792863245   -81013.711875907 0.0967239751324  -81013.7119981653 0.12897689633  -81013.7134295006 0.161235382479  -81013.7155567919 0.193497017093   -81013.717651527 0.225760255392  -81013.7189282318 0.25802248342  -81013.7191890524 0.290283676711  -81013.7185233397 0.322543236879  -81013.7177093017 0.354803927432  -81013.7182329229 0.387068565941  -81013.7198730206 0.419336483948  -81013.7220874622 0.451607138413  -81013.7240341933 0.48387827095  -81013.7250600928 0.516147601723  -81013.7250594293 0.548413383387  -81013.7242168305 0.580674387179  -81013.7236635891 0.612933340612  -81013.7245756458 0.645192981583  -81013.7264129829 0.677453259262  -81013.7286530106 0.70971397443  -81013.7303854669 0.741973234978  -81013.7311366264 0.774230266777   -81013.730883283 0.806483753339  -81013.7299577274 0.838734646691  -81013.7297528357 0.870986111049  -81013.7309652978 0.903239463932  -81013.7329739658 0.935493098242  -81013.7351613473 0.967747081525  -81013.7366530619            1  -81013.7371468926 
1563  0.001055252 1.6728314e-05 1.3813443e-05 1.6725947e-05  0.001447552 0.0013761881  0.025270704    14.773183            0  -81013.7132523812 0.0322410156642  -81013.7127951036 0.0644825678585  -81013.7118761931 0.0967283927196  -81013.7120018711 0.128981896219  -81013.7134352032 0.161240603568  -81013.7155634277 0.193502258101  -81013.7176578078 0.225765301387   -81013.718930986 0.258026921738  -81013.7191905025 0.290287062105  -81013.7185258755 0.322545324091  -81013.7177117495 0.354804441333  -81013.7182376074 0.387067204541  -81013.7198797461 0.419332948394  -81013.7220954806 0.451601145612  -81013.7240405481 0.483869604831  -81013.7250628353 0.516135976374  -81013.7250622947 0.548398944131  -81013.7242206448 0.58065771921   -81013.723666749 0.612914998125   -81013.724580332 0.645173445987  -81013.7264191609 0.677432965317  -81013.7286598605 0.709693355396  -81013.7303899472 0.741952666784   -81013.731137983 0.774209986885  -81013.7308854918 0.80646430402  -81013.7299596718 0.838716777022  -81013.7297549519 0.870970499908  -81013.7309694274 0.903226746777  -81013.7329788054 0.935484040399   -81013.735166714 0.967742361867  -81013.7366556117            1  -81013.7371468976 
Setting up climbing ...
Climbing replica = 3
Step MaxReplicaForce MaxAtomForce GradV0 GradV1 GradVc EBF EBR RDT RD1 PE1 RD2 PE2 ... RDN PEN
1563  0.001447552 7.9268682e-05 1.3813443e-05 1.6725947e-05  0.001447552 0.0013761881  0.025270704    14.773183            0  -81013.7132523812 0.0322410156642  -81013.7127951037 0.0644825678585  -81013.7118761931 0.0967283927196   -81013.712001871 0.128981896219  -81013.7134352031 0.161240603568  -81013.7155634277 0.193502258101  -81013.7176578078 0.225765301387   -81013.718930986 0.258026921738  -81013.7191905025 0.290287062105  -81013.7185258755 0.322545324091  -81013.7177117495 0.354804441333  -81013.7182376074 0.387067204541  -81013.7198797461 0.419332948394  -81013.7220954806 0.451601145612  -81013.7240405481 0.483869604831  -81013.7250628353 0.516135976374  -81013.7250622947 0.548398944131  -81013.7242206448 0.58065771921  -81013.7236667489 0.612914998125   -81013.724580332 0.645173445987  -81013.7264191609 0.677432965317  -81013.7286598605 0.709693355396  -81013.7303899472 0.741952666784   -81013.731137983 0.774209986885  -81013.7308854918 0.80646430402  -81013.7299596719 0.838716777022  -81013.7297549519 0.870970499908  -81013.7309694274 0.903226746777  -81013.7329788054 0.935484040399   -81013.735166714 0.967742361867  -81013.7366556117            1  -81013.7371468976 
1569 0.0014469753   7.9278e-05 1.3023517e-05 1.5763775e-05 0.0014469753 0.0013761872  0.025270709    14.773186            0  -81013.7132523756 0.0322410165372  -81013.7127951007 0.0644827892516  -81013.7118761884 0.0967283924224  -81013.7120018778 0.128981895947   -81013.713435208 0.161240603394  -81013.7155634406 0.193502257961  -81013.7176578121 0.225765301212  -81013.7189309833 0.258026921375  -81013.7191905008 0.290287061392  -81013.7185258749 0.322545322936  -81013.7177117532 0.354804439633  -81013.7182376128 0.387067202183   -81013.719879754 0.419332945273  -81013.7220954872 0.451601141628   -81013.724040552 0.483869599912  -81013.7250628393 0.516135970412  -81013.7250622954 0.548398937182  -81013.7242206483 0.580657711498  -81013.7236667487 0.612914989861  -81013.7245803317 0.645173437356  -81013.7264191628 0.677432956492   -81013.728659864 0.709693346549  -81013.7303899502 0.741952658063  -81013.7311379818 0.774209978381  -81013.7308854994 0.806464295939  -81013.7299596746 0.838716769645  -81013.7297549516 0.870970493494  -81013.7309694265 0.903226741569  -81013.7329788048 0.935484036698  -81013.7351667125 0.967742359942  -81013.7366556104            1  -81013.7371468971 
