LAMMPS (7 Aug 2019)
Running on 32 partitions of processors
Step MaxReplicaForce MaxAtomForce GradV0 GradV1 GradVc EBF EBR RDT RD1 PE1 RD2 PE2 ... RDN PEN
0    1.7154908   0.17394268 2.7255464e-05 3.0018473e-05    1.7151882   0.46397832   0.48787284    14.223575            0   -81013.713  0.032258065   -81013.705  0.064516129   -81013.681  0.096774194   -81013.648   0.12903226   -81013.607   0.16129032   -81013.562   0.19354839   -81013.515   0.22580645   -81013.469   0.25806452   -81013.425   0.29032258   -81013.383   0.32258065   -81013.346   0.35483871   -81013.315   0.38709677   -81013.288   0.41935484   -81013.269    0.4516129   -81013.255   0.48387097   -81013.249   0.51612903    -81013.25    0.5483871   -81013.258   0.58064516   -81013.274   0.61290323   -81013.295   0.64516129   -81013.323   0.67741935   -81013.356   0.70967742   -81013.395   0.74193548   -81013.438   0.77419355   -81013.484   0.80645161   -81013.532   0.83870968   -81013.581   0.87096774   -81013.628   0.90322581    -81013.67   0.93548387   -81013.705   0.96774194   -81013.728            1   -81013.737 
100   0.15129902  0.010901712 6.879032e-06 7.3848746e-06   0.14266899  0.023235118  0.047129637    14.350506            0   -81013.713  0.032077089   -81013.712  0.064178415    -81013.71  0.096321958   -81013.708   0.12852097   -81013.707   0.16077944   -81013.706   0.19308959   -81013.705   0.22543129   -81013.703    0.2577758     -81013.7   0.29009733   -81013.697   0.32239195   -81013.693   0.35467717   -81013.691   0.38697101    -81013.69    0.4192511    -81013.69   0.45152798   -81013.691   0.48381674   -81013.691   0.51612113   -81013.691   0.54842679   -81013.691   0.58072181   -81013.693   0.61300933   -81013.696   0.64530428     -81013.7   0.67762472   -81013.704   0.70997518   -81013.709   0.74233889   -81013.712    0.7746866   -81013.715   0.80699606   -81013.718   0.83926074   -81013.721     0.871483   -81013.725   0.90366559    -81013.73   0.93580962   -81013.734   0.96791744   -81013.736            1   -81013.737 
200  0.026286363 0.00091176581 4.8812121e-06 5.2131597e-06 0.0090913095 0.0020220035  0.025916521    14.463674            0   -81013.713  0.032002158   -81013.713  0.064020401   -81013.712  0.096074234   -81013.711   0.12817944   -81013.712   0.16034856   -81013.714    0.1925754   -81013.715   0.22485064   -81013.716   0.25716051   -81013.716    0.2894762   -81013.715   0.32178891   -81013.714   0.35410856   -81013.715   0.38645317   -81013.716   0.41883094   -81013.718   0.45124726   -81013.719   0.48369914    -81013.72   0.51617141    -81013.72   0.54860417    -81013.72   0.58100271    -81013.72   0.61338138   -81013.721    0.6457502   -81013.723   0.67811436   -81013.725   0.71047562   -81013.727   0.74282807   -81013.728   0.77516421   -81013.728   0.80743896   -81013.728   0.83965304   -81013.729   0.87180832    -81013.73   0.90391025   -81013.732   0.93596736   -81013.735   0.96799251   -81013.737            1   -81013.737 
300  0.013762311 0.00042307356 4.1549312e-06 4.392753e-06  0.005118133 0.0016644644   0.02555899    14.512716            0   -81013.713  0.032027675   -81013.713  0.064067425   -81013.712  0.096136045   -81013.712   0.12824728   -81013.713   0.16041007   -81013.715   0.19261994   -81013.717   0.22487296   -81013.718   0.25716195   -81013.718   0.28946781   -81013.717   0.32177714   -81013.716   0.35409969   -81013.717   0.38644647   -81013.718   0.41882816    -81013.72   0.45125444   -81013.722   0.48372035   -81013.723   0.51620936   -81013.723   0.54866243   -81013.722   0.58106705   -81013.722    0.6134354   -81013.723   0.64578375   -81013.725   0.67812607   -81013.727   0.71046955   -81013.729   0.74280921    -81013.73   0.77513306    -81013.73   0.80739413   -81013.729   0.83959424   -81013.729   0.87174289   -81013.731   0.90384917   -81013.733   0.93592026   -81013.735   0.96796689   -81013.737            1   -81013.737 
400 0.0088046741 0.00026325115 3.6679676e-06 3.8605715e-06 0.0036933122 0.0015162957  0.025410814    14.553011            0   -81013.713  0.032057908   -81013.713  0.064126288   -81013.712  0.096220244   -81013.712   0.12835209   -81013.713   0.16052671   -81013.715   0.19273981   -81013.717   0.22498871   -81013.718   0.25726832   -81013.719   0.28956628   -81013.718   0.32187022   -81013.717   0.35418862   -81013.717   0.38653026   -81013.719   0.41890373   -81013.721   0.45131675   -81013.723   0.48376274   -81013.724   0.51622812   -81013.724   0.54866548   -81013.723   0.58105828   -81013.723   0.61341616   -81013.724   0.64575293   -81013.726   0.67808118   -81013.728   0.71040744    -81013.73   0.74272817   -81013.731   0.77503486    -81013.73   0.80729085   -81013.729   0.83949313   -81013.729   0.87165185   -81013.731   0.90377528   -81013.733   0.93586823   -81013.735   0.96793998   -81013.737            1   -81013.737 
500 0.0060973383 0.0001807836 3.2906494e-06 3.4513083e-06 0.0029913989 0.0014343908  0.025328915    14.587502            0   -81013.713  0.032090984   -81013.713  0.064190925   -81013.712  0.096313052   -81013.712   0.12846826   -81013.713   0.16065811   -81013.715   0.19287863   -81013.717   0.22512797   -81013.719   0.25740266   -81013.719   0.28969438   -81013.718    0.3219928   -81013.717   0.35430481   -81013.718   0.38663738   -81013.719   0.41899658   -81013.721   0.45138782   -81013.723   0.48380459   -81013.725   0.51623655   -81013.724   0.54864791   -81013.724   0.58102189   -81013.723   0.61336616   -81013.724   0.64569151   -81013.726   0.67800764   -81013.728   0.71031945    -81013.73   0.74262425   -81013.731    0.7749165   -81013.731   0.80716877    -81013.73   0.83937688    -81013.73   0.87154932   -81013.731   0.90369313   -81013.733   0.93581099   -81013.735    0.9679106   -81013.737            1   -81013.737 
600  0.004561428 0.0001319659 3.0178841e-06 3.1552164e-06 0.0018874195 0.0013919306  0.025286445    14.614028            0   -81013.713  0.032119513   -81013.713  0.064246615   -81013.712  0.096392862   -81013.712   0.12856794   -81013.713   0.16077133   -81013.715   0.19299932   -81013.717   0.22525052   -81013.719   0.25752249   -81013.719   0.28980932   -81013.718   0.32210244   -81013.717   0.35440758   -81013.718   0.38673044   -81013.719   0.41907528   -81013.722    0.4514458   -81013.724   0.48383614   -81013.725   0.51623832   -81013.725   0.54862484   -81013.724   0.58098037   -81013.723   0.61331119   -81013.724   0.64562591   -81013.726   0.67793185   -81013.728   0.71023256    -81013.73   0.74252584   -81013.731   0.77480797   -81013.731   0.80705817    -81013.73    0.8392722    -81013.73   0.87145732   -81013.731   0.90361941   -81013.733   0.93575963   -81013.735   0.96788427   -81013.737            1   -81013.737 
700 0.0035076286 9.8066776e-05 2.7934288e-06 2.9112899e-06 0.0017526863 0.0013867406   0.02528126    14.636948            0   -81013.713  0.032145002   -81013.713  0.064296354   -81013.712  0.096464062   -81013.712    0.1286566   -81013.713    0.1608722   -81013.715   0.19310731   -81013.717   0.22536081   -81013.719   0.25763087   -81013.719   0.28991332   -81013.718   0.32220115   -81013.718   0.35449919   -81013.718   0.38681227    -81013.72   0.41914324   -81013.722   0.45149449   -81013.724   0.48386092   -81013.725   0.51623632   -81013.725    0.5485996   -81013.724   0.58093748   -81013.723    0.6132552   -81013.724   0.64555973   -81013.726   0.67785643   -81013.728   0.71014781    -81013.73   0.74243199   -81013.731   0.77470644   -81013.731    0.8069555    -81013.73   0.83917536    -81013.73   0.87137231   -81013.731   0.90355119   -81013.733   0.93571206   -81013.735   0.96785986   -81013.737            1   -81013.737 
800 0.0027159876 7.2347803e-05 2.5908213e-06 2.6911651e-06 0.0016589951 0.0013833802  0.025277897    14.658642            0   -81013.713  0.032168529   -81013.713  0.064342209   -81013.712   0.09652963   -81013.712   0.12873814   -81013.713    0.1609651   -81013.715    0.1932071   -81013.718    0.2254631   -81013.719   0.25773164   -81013.719   0.29000987   -81013.718   0.32229227   -81013.718     0.354583   -81013.718   0.38688619    -81013.72   0.41920357   -81013.722    0.4515365   -81013.724   0.48388061   -81013.725   0.51623113   -81013.725    0.5485722   -81013.724   0.58089293   -81013.724   0.61319771   -81013.724   0.64549223   -81013.726   0.67778023   -81013.729   0.71006333    -81013.73   0.74233987   -81013.731   0.77460821   -81013.731   0.80685677    -81013.73   0.83908249    -81013.73   0.87129085   -81013.731   0.90348574   -81013.733   0.93566634   -81013.735    0.9678364   -81013.737            1   -81013.737 
900 0.0022223955 5.3967912e-05 2.4354541e-06 2.5383971e-06 0.0015960233 0.0013812511  0.025275772    14.678035            0   -81013.713  0.032187973   -81013.713  0.064380064   -81013.712  0.096583689   -81013.712   0.12880524   -81013.713   0.16104162   -81013.715   0.19328947   -81013.718   0.22554774   -81013.719   0.25781507   -81013.719   0.29008962   -81013.718   0.32236708   -81013.718   0.35465115   -81013.718    0.3869455    -81013.72   0.41925102   -81013.722   0.45156835   -81013.724   0.48389375   -81013.725   0.51622342   -81013.725   0.54854554   -81013.724   0.58085142   -81013.724   0.61314487   -81013.724   0.64543066   -81013.726   0.67771129   -81013.729   0.70998776    -81013.73    0.7422585   -81013.731   0.77452244   -81013.731   0.80677104    -81013.73   0.83900208    -81013.73   0.87122035   -81013.731   0.90342899   -81013.733   0.93562664   -81013.735   0.96781601   -81013.737            1   -81013.737 
1000 0.0019022831 4.1889043e-05 2.2842913e-06 2.3592969e-06 0.0015558324  0.001379938  0.025274455    14.693804            0   -81013.713  0.032202057   -81013.713  0.064407445   -81013.712  0.096622717   -81013.712   0.12885357   -81013.713   0.16109667   -81013.715   0.19334878   -81013.718   0.22560875   -81013.719   0.25787517   -81013.719   0.29014686   -81013.718   0.32242041   -81013.718   0.35469923   -81013.718   0.38698672    -81013.72   0.41928322   -81013.722   0.45158892   -81013.724   0.48390049   -81013.725   0.51621479   -81013.725   0.54852275   -81013.724   0.58081742   -81013.724   0.61310228   -81013.725   0.64538145   -81013.726   0.67765665   -81013.729   0.70992845    -81013.73    0.7421953   -81013.731   0.77445646   -81013.731   0.80670543    -81013.73   0.83894066    -81013.73   0.87116652   -81013.731    0.9033856   -81013.733   0.93559622   -81013.735   0.96780037   -81013.737            1   -81013.737 
1100 0.0016387595 3.2580603e-05 2.1524874e-06 2.2174787e-06  0.001522479 0.0013788635  0.025273387    14.710048            0   -81013.713  0.032214525   -81013.713   0.06443164   -81013.712  0.096657109   -81013.712   0.12889598   -81013.713   0.16114488   -81013.716   0.19340068   -81013.718   0.22566212   -81013.719   0.25792764   -81013.719   0.29019655   -81013.718   0.32246631   -81013.718   0.35474008   -81013.718   0.38702105    -81013.72   0.41930912   -81013.722   0.45160415   -81013.724   0.48390317   -81013.725   0.51620351   -81013.725    0.5484985   -81013.724   0.58078285   -81013.724   0.61305974   -81013.725   0.64533282   -81013.726   0.67760313   -81013.729   0.70987092    -81013.73   0.74213461   -81013.731   0.77439365   -81013.731   0.80664327    -81013.73   0.83888262    -81013.73   0.87111566   -81013.731   0.90334453   -81013.733   0.93556737   -81013.735   0.96778551   -81013.737            1   -81013.737 
1200 0.0014483072 2.7569404e-05 2.0380659e-06 2.0949639e-06 0.0014977143  0.001378065   0.02527258    14.724854            0   -81013.713  0.032223871   -81013.713  0.064449728   -81013.712  0.096682714   -81013.712   0.12892737   -81013.713    0.1611804   -81013.716   0.19343881   -81013.718   0.22570126   -81013.719   0.25796594   -81013.719    0.2902325   -81013.719   0.32249908   -81013.718   0.35476867   -81013.718   0.38704431    -81013.72   0.41932563   -81013.722   0.45161227   -81013.724   0.48390154   -81013.725   0.51619103   -81013.725   0.54847585   -81013.724   0.58075208   -81013.724    0.6130227   -81013.725   0.64529101   -81013.726    0.6775576   -81013.729   0.70982251    -81013.73   0.74208408   -81013.731   0.77434184   -81013.731   0.80659228    -81013.73   0.83883513    -81013.73   0.87107405   -81013.731   0.90331087   -81013.733   0.93554366   -81013.735   0.96777328   -81013.737            1   -81013.737 
1300  0.001310902 2.374987e-05 1.9402409e-06 1.9908063e-06 0.0014792018 0.0013774416  0.025271965    14.738112            0   -81013.713  0.032230548   -81013.713  0.064462607   -81013.712  0.096700839   -81013.712    0.1289494   -81013.713   0.16120514   -81013.716   0.19346524   -81013.718   0.22572827   -81013.719   0.25799217   -81013.719   0.29025679   -81013.719   0.32252077   -81013.718     0.354787   -81013.718   0.38705843    -81013.72   0.41933451   -81013.722   0.45161478   -81013.724   0.48389672   -81013.725   0.51617805   -81013.725   0.54845519   -81013.724   0.58072527   -81013.724   0.61299115   -81013.725    0.6452559   -81013.726    0.6775198   -81013.729   0.70978275    -81013.73   0.74204303   -81013.731   0.77430014   -81013.731   0.80655147    -81013.73   0.83879723    -81013.73   0.87104086   -81013.731   0.90328397   -81013.733   0.93552466   -81013.735   0.96776346   -81013.737            1   -81013.737 
1400 0.0011909027 2.0274655e-05 1.8549493e-06 1.8913403e-06 0.0014624243 0.0013768767  0.025271402    14.752386            0   -81013.713  0.032236001   -81013.713  0.064473067   -81013.712  0.096715428   -81013.712   0.12896688   -81013.713   0.16122453   -81013.716   0.19348576   -81013.718   0.22574905   -81013.719   0.25801206   -81013.719   0.29027475   -81013.719   0.32253621   -81013.718   0.35479925   -81013.718   0.38706673    -81013.72   0.41933802   -81013.722   0.45161259   -81013.724   0.48388807   -81013.725   0.51616222   -81013.725   0.54843257   -81013.724   0.58069722   -81013.724   0.61295894   -81013.725    0.6452206   -81013.726   0.67748225   -81013.729   0.70974373    -81013.73   0.74200322   -81013.731    0.7742601   -81013.731   0.80651255    -81013.73    0.8387612    -81013.73   0.87100933   -81013.731   0.90325836   -81013.733   0.93550652   -81013.735   0.96775406   -81013.737            1   -81013.737 
1500 0.0011081432 1.7814923e-05 1.7601149e-06 1.800399e-06 0.0014504559 0.0013764701  0.025270986     14.76431            0   -81013.713  0.032239271   -81013.713  0.064479286   -81013.712  0.096723975   -81013.712    0.1289769   -81013.713   0.16123538   -81013.716   0.19349702   -81013.718   0.22576026   -81013.719   0.25802248   -81013.719   0.29028368   -81013.719   0.32254324   -81013.718   0.35480393   -81013.718   0.38706857    -81013.72   0.41933648   -81013.722   0.45160714   -81013.724   0.48387827   -81013.725    0.5161476   -81013.725   0.54841338   -81013.724   0.58067439   -81013.724   0.61293334   -81013.725   0.64519298   -81013.726   0.67745326   -81013.729   0.70971397    -81013.73   0.74197323   -81013.731   0.77423027   -81013.731   0.80648375    -81013.73   0.83873465    -81013.73   0.87098611   -81013.731   0.90323946   -81013.733    0.9354931   -81013.735   0.96774708   -81013.737            1   -81013.737 
1563  0.001055252 1.6728314e-05 1.3813443e-05 1.6725947e-05  0.001447552 0.0013761881  0.025270704    14.773183            0   -81013.713  0.032241016   -81013.713  0.064482568   -81013.712  0.096728393   -81013.712    0.1289819   -81013.713    0.1612406   -81013.716   0.19350226   -81013.718    0.2257653   -81013.719   0.25802692   -81013.719   0.29028706   -81013.719   0.32254532   -81013.718   0.35480444   -81013.718    0.3870672    -81013.72   0.41933295   -81013.722   0.45160115   -81013.724    0.4838696   -81013.725   0.51613598   -81013.725   0.54839894   -81013.724   0.58065772   -81013.724     0.612915   -81013.725   0.64517345   -81013.726   0.67743297   -81013.729   0.70969336    -81013.73   0.74195267   -81013.731   0.77420999   -81013.731    0.8064643    -81013.73   0.83871678    -81013.73    0.8709705   -81013.731   0.90322675   -81013.733   0.93548404   -81013.735   0.96774236   -81013.737            1   -81013.737 
Climbing replica = 3
Step MaxReplicaForce MaxAtomForce GradV0 GradV1 GradVc EBF EBR RDT RD1 PE1 RD2 PE2 ... RDN PEN
1563  0.001447552 7.9268682e-05 1.3813443e-05 1.6725947e-05  0.001447552 0.0013761881  0.025270704    14.773183            0   -81013.713  0.032241016   -81013.713  0.064482568   -81013.712  0.096728393   -81013.712    0.1289819   -81013.713    0.1612406   -81013.716   0.19350226   -81013.718    0.2257653   -81013.719   0.25802692   -81013.719   0.29028706   -81013.719   0.32254532   -81013.718   0.35480444   -81013.718    0.3870672    -81013.72   0.41933295   -81013.722   0.45160115   -81013.724    0.4838696   -81013.725   0.51613598   -81013.725   0.54839894   -81013.724   0.58065772   -81013.724     0.612915   -81013.725   0.64517345   -81013.726   0.67743297   -81013.729   0.70969336    -81013.73   0.74195267   -81013.731   0.77420999   -81013.731    0.8064643    -81013.73   0.83871678    -81013.73    0.8709705   -81013.731   0.90322675   -81013.733   0.93548404   -81013.735   0.96774236   -81013.737            1   -81013.737 
1569 0.0014469753   7.9278e-05 1.3023517e-05 1.5763775e-05 0.0014469753 0.0013761872  0.025270709    14.773186            0   -81013.713  0.032241017   -81013.713  0.064482789   -81013.712  0.096728392   -81013.712    0.1289819   -81013.713    0.1612406   -81013.716   0.19350226   -81013.718    0.2257653   -81013.719   0.25802692   -81013.719   0.29028706   -81013.719   0.32254532   -81013.718   0.35480444   -81013.718    0.3870672    -81013.72   0.41933295   -81013.722   0.45160114   -81013.724    0.4838696   -81013.725   0.51613597   -81013.725   0.54839894   -81013.724   0.58065771   -81013.724   0.61291499   -81013.725   0.64517344   -81013.726   0.67743296   -81013.729   0.70969335    -81013.73   0.74195266   -81013.731   0.77420998   -81013.731    0.8064643    -81013.73   0.83871677    -81013.73   0.87097049   -81013.731   0.90322674   -81013.733   0.93548404   -81013.735   0.96774236   -81013.737            1   -81013.737 
