LAMMPS (7 Aug 2019)
Reading data file ...
  orthogonal box = (0 0 -300) to (4.96557 229.35 369.209)
  1 by 5 by 12 MPI processor grid
  reading atoms ...
  19200 atoms
  scanning bonds ...
  1 = max bonds/atom
  reading bonds ...
  9600 bonds
Finding 1-2 1-3 1-4 neighbors ...
  special bond factors lj:   0          0          0         
  special bond factors coul: 0          0          0         
  1 = max # of 1-2 neighbors
  0 = max # of 1-3 neighbors
  0 = max # of 1-4 neighbors
  1 = max # of special neighbors
  special bonds CPU = 0.00147295 secs
  read_data CPU = 0.0633495 secs
Finding 1-2 1-3 1-4 neighbors ...
  special bond factors lj:   0          0          0         
  special bond factors coul: 0          1          1         
  1 = max # of 1-2 neighbors
  0 = max # of 1-3 neighbors
  0 = max # of 1-4 neighbors
  1 = max # of special neighbors
  special bonds CPU = 0.000898838 secs
9600 atoms in group cores
9600 atoms in group shells
PPPM initialization ...
  using 12-bit tables for long-range coulomb (../kspace.cpp:323)
  G vector (1/distance) = 0.359575
  grid = 24 360 750
  stencil order = 5
  estimated absolute RMS force accuracy = 1.59008e-05
  estimated relative force accuracy = 1.10425e-06
  using double precision KISS FFT
  3d grid and FFT values/proc = 221130 112320
Neighbor list info ...
  update every 1 steps, delay 10 steps, check yes
  max neighbors/atom: 10000, page size: 100000
  master list distance cutoff = 12
  ghost atom cutoff = 12
  binsize = 6, bins = 1 39 112
  1 neighbor lists, perpetual/occasional/extra = 1 0 0
  (1) pair buck/coul/long/cs, perpetual
      attributes: half, newton on
      pair build: half/bin/newton
      stencil: half/bin/3d/newton
      bin: standard
WARNING: Using 'neigh_modify every 1 delay 0 check yes' setting during minimization (../min.cpp:168)
PPPM initialization ...
  using 12-bit tables for long-range coulomb (../kspace.cpp:323)
  G vector (1/distance) = 0.359575
  grid = 24 360 750
  stencil order = 5
  estimated absolute RMS force accuracy = 1.59008e-05
  estimated relative force accuracy = 1.10425e-06
  using double precision KISS FFT
  3d grid and FFT values/proc = 221130 112320
Setting up cg style minimization ...
  Unit style    : metal
  Current step  : 0
Per MPI rank memory allocation (min/avg/max) = 20.05 | 24.44 | 45.8 Mbytes
Step Temp TotEng Lx Ly Lz Pxx Pyy Pzz 
       0          300   -227972.88      4.96557    229.35003    669.20902    8477.5702     9474.277    1258.6068 
      10          300    -228710.9      4.96557    229.35003    669.20902    995.71267    1496.6696   -782.93961 
      20          300   -228753.87      4.96557    229.35003    669.20902    929.35636    1178.8301   -215.56564 
      30          300   -228759.29      4.96557    229.35003    669.20902    1393.6902    1582.9522    663.05001 
      40          300   -228764.04      4.96557    229.35003    669.20902    1433.2262    1551.6789    466.82948 
      50          300   -228766.29      4.96557    229.35003    669.20902    1355.7721    1461.9933    422.60842 
      60          300   -228767.59      4.96557    229.35003    669.20902    1354.8174    1474.2941     444.7779 
      70          300   -228767.83      4.96557    229.35003    669.20902    1363.2943    1468.3567    434.05112 
      80          300   -228768.36      4.96557    229.35003    669.20902    1363.4537    1440.3799     420.0499 
      90          300   -228768.68      4.96557    229.35003    669.20902    1369.6639     1443.225    425.98164 
     100          300   -228768.76      4.96557    229.35003    669.20902    1372.9748    1450.0249    439.58465 
     110          300   -228768.88      4.96557    229.35003    669.20902    1392.3836    1462.8073    463.34862 
     120          300   -228769.06      4.96557    229.35003    669.20902    1414.8223    1475.4156    493.94963 
     130          300   -228769.17      4.96557    229.35003    669.20902    1430.8224    1473.8566     503.7256 
     140          300   -228769.21      4.96557    229.35003    669.20902    1433.8677    1468.4292    499.33334 
Loop time of 167.297 on 60 procs for 140 steps with 19200 atoms

99.1% CPU use with 60 MPI tasks x no OpenMP threads

Minimization stats:
  Stopping criterion = energy tolerance
  Energy initial, next-to-last, final = 
        -228345.114644     -229141.438301     -229141.438303
  Force two-norm initial, final = 483.752 0.908159
  Force max component initial, final = 5.32559 0.0357538
  Final line search alpha, max atom move = 2.54996e-09 9.11708e-11
  Iterations, force evaluations = 140 382

MPI task timing breakdown:
Section |  min time  |  avg time  |  max time  |%varavg| %total
---------------------------------------------------------------
Pair    | 0.0011401  | 6.2211     | 42.098     | 559.1 |  3.72
Bond    | 0.00069761 | 0.0029704  | 0.01325    |   7.6 |  0.00
Kspace  | 123.13     | 160.53     | 167.06     | 115.6 | 95.95
Neigh   | 0          | 0          | 0          |   0.0 |  0.00
Comm    | 0.0018885  | 0.33042    | 2.1659     | 127.8 |  0.20
Output  | 0.029685   | 0.029768   | 0.02991    |   0.0 |  0.02
Modify  | 0          | 0          | 0          |   0.0 |  0.00
Other   |            | 0.1872     |            |       |  0.11

Nlocal:    320 ave 1952 max 0 min
Histogram: 50 0 0 0 0 0 0 0 0 10
Nghost:    3541 ave 21248 max 0 min
Histogram: 50 0 0 0 0 0 0 0 0 10
Neighs:    262539 ave 1.69547e+06 max 0 min
Histogram: 50 0 0 0 0 0 0 0 5 5

Total # of neighbors = 15752320
Ave neighs/atom = 820.433
Ave special neighs/atom = 1
Neighbor list builds = 0
Dangerous builds = 0
PPPM initialization ...
  using 12-bit tables for long-range coulomb (../kspace.cpp:323)
  G vector (1/distance) = 0.359575
  grid = 24 360 750
  stencil order = 5
  estimated absolute RMS force accuracy = 1.59008e-05
  estimated relative force accuracy = 1.10425e-06
  using double precision KISS FFT
  3d grid and FFT values/proc = 221130 112320
Setting up Verlet run ...
  Unit style    : metal
  Current step  : 140
  Time step     : 0.0001
Per MPI rank memory allocation (min/avg/max) = 19.96 | 23.82 | 42.51 Mbytes
Step Temp TotEng Lx Ly Lz Pxx Pyy Pzz 
     140          300   -228769.21      4.96557    229.35003    669.20902    1433.8677    1468.4292    499.33334 
     150    297.04273   -228769.21      4.96557    229.35003    669.20902    1446.0227    1480.7077    514.02312 
     160     289.0181   -228770.63      4.96557    229.35003    669.20902    1469.1829    1502.1296    528.39401 
     170    277.68959   -228771.67      4.96557    229.35003    669.20902    1495.5765    1524.2962    535.75796 
     180    264.30852   -228769.69      4.96557    229.35003    669.20902    1523.5998    1545.6168     538.6934 
     190    249.06185   -228766.66      4.96557    229.35003    669.20902    1566.3209    1582.0495     556.2694 
     200    231.62552   -228764.16      4.96557    229.35003    669.20902    1632.9917    1642.8294    594.07984 
     210    212.12708   -228761.98      4.96557    229.35003    669.20902    1712.8931    1716.7188    637.33176 
     220    191.81684   -228760.57      4.96557    229.35003    669.20902    1788.3856    1786.5378    671.51318 
     230    172.34787   -228758.88      4.96557    229.35003    669.20902    1851.6732    1843.7321    693.50526 
     240    154.65782   -228756.25      4.96557    229.35003    669.20902    1909.2148    1897.0964    718.16606 
     250    139.08785   -228753.78      4.96557    229.35003    669.20902    1975.5546    1963.0717     762.4354 
     260    125.99604   -228751.15      4.96557    229.35003    669.20902    2056.7939    2045.5098    822.20506 
     270    115.79238   -228748.23      4.96557    229.35003    669.20902    2145.0589    2134.9871    882.11232 
     280    108.59111   -228745.75      4.96557    229.35003    669.20902    2229.8123    2218.8265    932.21326 
     290    104.14485   -228743.42      4.96557    229.35003    669.20902    2303.7979    2289.1978    973.93324 
     300    102.21249   -228741.26      4.96557    229.35003    669.20902    2365.4274    2348.1384    1018.5978 
     310    102.82139   -228739.41      4.96557    229.35003    669.20902    2419.1416    2400.2601    1069.8191 
     320    106.01853   -228736.96      4.96557    229.35003    669.20902    2467.5878    2446.3293    1116.6556 
     330    111.40709   -228733.63      4.96557    229.35003    669.20902    2512.0776    2486.6608    1149.2187 
     340    118.07916   -228730.17      4.96557    229.35003    669.20902    2556.5836    2521.4689    1168.4203 
     350    125.11494   -228727.08      4.96557    229.35003    669.20902    2599.0992    2549.3667    1183.1933 
     360     132.0922   -228724.22      4.96557    229.35003    669.20902    2629.8404    2565.8965    1199.4667 
     370    139.04616   -228721.02      4.96557    229.35003    669.20902    2641.7749    2565.4316    1211.3559 
     380    146.01328   -228717.22      4.96557    229.35003    669.20902    2635.2379    2549.4121    1208.3363 
     390    152.71666   -228712.92      4.96557    229.35003    669.20902    2617.4039    2525.7169    1187.1152 
     400    158.71195   -228708.41      4.96557    229.35003    669.20902    2597.4525     2500.543    1155.2387 
     410    163.75673   -228704.16      4.96557    229.35003    669.20902     2577.323    2476.0799    1125.2898 
     420    167.97719   -228700.14      4.96557    229.35003    669.20902    2550.9499    2449.8769    1103.1735 
     430     171.7431   -228695.99      4.96557    229.35003    669.20902    2512.6258    2418.1047    1083.8005 
     440    175.43769   -228691.57      4.96557    229.35003    669.20902    2463.2453    2381.8611      1058.28 
     450     179.2942   -228686.75      4.96557    229.35003    669.20902    2409.6345    2345.9564    1024.3445 
     460    183.35504   -228681.66      4.96557    229.35003    669.20902     2359.055    2315.2278    990.71969 
     470    187.52964   -228676.73      4.96557    229.35003    669.20902    2314.6437    2291.9386    969.20124 
     480    191.73727   -228671.99      4.96557    229.35003    669.20902    2275.6004    2274.2202    963.66648 
     490    196.05182   -228667.39      4.96557    229.35003    669.20902    2240.7258    2260.0127    967.29343 
     500    200.67572   -228662.78      4.96557    229.35003    669.20902    2212.1142    2249.3245    970.57901 
     510    205.72519   -228657.77      4.96557    229.35003    669.20902    2194.7225    2243.4006    972.63269 
     520    211.03879   -228652.34      4.96557    229.35003    669.20902    2193.0638    2245.6311    982.33335 
     530    216.22165   -228646.91      4.96557    229.35003    669.20902    2208.1041    2257.7449    1008.8393 
     540    220.89479    -228641.7      4.96557    229.35003    669.20902    2235.9799    2276.3429    1051.1308 
     550    224.88216    -228636.6      4.96557    229.35003    669.20902    2272.1861    2296.9666    1097.2649 
     560    228.16712   -228631.55      4.96557    229.35003    669.20902     2316.463    2318.3761    1138.2204 
     570    230.73936   -228626.49      4.96557    229.35003    669.20902    2371.4989    2343.8028    1177.6734 
     580    232.53499   -228621.22      4.96557    229.35003    669.20902    2439.5555    2377.8956    1225.6219 
     590    233.49951   -228615.87      4.96557    229.35003    669.20902    2519.2939    2421.2475    1288.2644 
     600    233.63187   -228610.57      4.96557    229.35003    669.20902    2604.2771    2470.1753    1360.0271 
     610    232.94597   -228605.21      4.96557    229.35003    669.20902    2687.4248    2520.1241    1427.4068 
     620    231.45819   -228599.94      4.96557    229.35003    669.20902    2765.4499    2569.1597    1484.9818 
     630    229.25808   -228594.92      4.96557    229.35003    669.20902    2838.0876    2619.7202    1538.4091 
     640    226.56607   -228589.88      4.96557    229.35003    669.20902    2906.2263    2674.2028    1595.5829 
     650    223.66494   -228584.76      4.96557    229.35003    669.20902     2970.046    2731.7828    1659.1322 
     660     220.7442    -228579.5      4.96557    229.35003    669.20902    3028.4783    2790.4846     1720.769 
     670    217.84985   -228574.11      4.96557    229.35003    669.20902     3080.568    2847.6694    1769.3388 
     680    215.00206   -228568.91      4.96557    229.35003    669.20902    3124.5982    2900.9956    1802.5686 
     690     212.3113   -228563.78      4.96557    229.35003    669.20902    3157.7606    2949.2804    1825.0943 
     700    209.96004   -228558.53      4.96557    229.35003    669.20902    3179.3069    2991.2364    1843.6066 
     710    208.09588   -228553.39      4.96557    229.35003    669.20902    3191.8188    3026.5692    1859.0354 
     720    206.78405   -228548.18      4.96557    229.35003    669.20902    3199.0466     3055.728    1862.0913 
     730     206.0794   -228542.83      4.96557    229.35003    669.20902    3204.1834    3077.6607    1845.1255 
     740    206.08495   -228537.62      4.96557    229.35003    669.20902    3208.7375    3091.1631    1809.6011 
     750    206.90916   -228532.33      4.96557    229.35003    669.20902    3211.3665    3095.7137    1762.7904 
     760    208.61348   -228526.88      4.96557    229.35003    669.20902    3209.4864    3091.1731    1713.6983 
     770    211.22686   -228521.49      4.96557    229.35003    669.20902    3202.4853    3078.8956    1663.3099 
     780    214.79133   -228516.06      4.96557    229.35003    669.20902     3191.536    3060.2187    1603.7063 
     790    219.35042   -228510.57      4.96557    229.35003    669.20902    3178.2936    3035.7451    1530.9068 
     800     224.8756   -228505.01      4.96557    229.35003    669.20902    3165.2521    3007.0516     1449.944 
     810    231.25654   -228499.41      4.96557    229.35003    669.20902     3154.055    2976.1166    1372.1205 
     820    238.38278   -228493.93      4.96557    229.35003    669.20902     3142.801    2943.9907    1306.1969 
     830    246.17477   -228488.35      4.96557    229.35003    669.20902    3127.4699     2910.545    1249.2341 
     840    254.49195   -228482.56      4.96557    229.35003    669.20902    3105.6847    2875.8469     1194.219 
     850     263.0308    -228476.9      4.96557    229.35003    669.20902    3078.9546    2842.5041    1140.9001 
     860    271.38344   -228471.44      4.96557    229.35003    669.20902    3051.2675    2814.0191    1095.4568 
     870    279.23429   -228466.19      4.96557    229.35003    669.20902    3024.7204    2791.3298     1066.059 
     880    286.44629   -228461.19      4.96557    229.35003    669.20902    2998.1806     2772.582    1054.6391 
     890    292.92065   -228456.28      4.96557    229.35003    669.20902    2970.0361    2755.0415    1054.0016 
     900    298.42927   -228451.46      4.96557    229.35003    669.20902    2940.8053    2738.3749    1057.6846 
     910    302.65988   -228447.01      4.96557    229.35003    669.20902    2913.6063    2725.3674    1066.5503 
     920    305.44273   -228443.09      4.96557    229.35003    669.20902    2891.5668    2718.4956    1085.9092 
     930     306.8769   -228439.64      4.96557    229.35003    669.20902    2874.6783    2717.7642    1119.2392 
     940    307.19794   -228436.39      4.96557    229.35003    669.20902    2861.3895    2721.4103    1163.3173 
     950    306.57943   -228433.26      4.96557    229.35003    669.20902    2852.7341    2728.3707    1211.0214 
     960    305.12169   -228430.51      4.96557    229.35003    669.20902    2852.0039    2739.1225    1257.8751 
     970    303.00087   -228428.08      4.96557    229.35003    669.20902    2861.0276    2752.9917    1304.4836 
     980    300.54184   -228425.75      4.96557    229.35003    669.20902    2878.8802    2768.2816     1354.791 
     990    298.09765   -228423.52      4.96557    229.35003    669.20902    2903.3824    2785.5952    1411.8405 
    1000    295.89948    -228421.3      4.96557    229.35003    669.20902    2932.9953     2807.594    1473.8767 
    1010    294.07121   -228419.02      4.96557    229.35003    669.20902    2967.8005    2836.8595    1535.2892 
    1020    292.74401   -228416.75      4.96557    229.35003    669.20902    3008.2698    2873.1818    1591.4857 
    1030    292.06929   -228414.38      4.96557    229.35003    669.20902    3053.5737    2912.0191    1642.7346 
    1040    292.09857    -228411.8      4.96557    229.35003    669.20902    3101.7461    2948.4153    1693.1589 
    1050    292.71075   -228409.11      4.96557    229.35003    669.20902     3151.071    2981.2659    1746.3436 
    1060    293.71386   -228406.44      4.96557    229.35003    669.20902    3200.5234    3013.0845    1800.5299 
    1070    294.99828   -228403.82      4.96557    229.35003    669.20902    3248.6662    3047.0323    1849.2961 
    1080    296.53806   -228401.11      4.96557    229.35003    669.20902    3293.1369    3083.5194    1888.6516 
    1090    298.25047   -228398.22      4.96557    229.35003    669.20902    3332.5564    3120.1847    1920.5645 
    1100    299.92342   -228395.31      4.96557    229.35003    669.20902    3367.4545    3154.1597    1950.1382 
    1110    301.32585   -228392.62      4.96557    229.35003    669.20902    3398.2766    3182.2952    1979.9379 
    1120    302.36787   -228390.14      4.96557    229.35003    669.20902    3424.3541    3202.2313    2005.1985 
    1130    303.12168   -228387.77      4.96557    229.35003    669.20902    3444.5469     3214.232    2019.0365 
    1140    303.70401    -228385.5      4.96557    229.35003    669.20902    3457.8397    3221.0252    2021.3364 
    1150    304.18414   -228383.28      4.96557    229.35003    669.20902    3464.1298    3226.3411    2018.0546 
    1160    304.60864   -228381.14      4.96557    229.35003    669.20902    3464.1108     3231.898    2015.3416 
    1170     305.0554   -228379.18      4.96557    229.35003    669.20902    3458.7953    3235.4696    2013.2433 
    1180    305.61955   -228377.39      4.96557    229.35003    669.20902    3449.5502    3233.3302     2004.817 
    1190    306.36909   -228375.83      4.96557    229.35003    669.20902     3437.378    3223.1117    1985.3941 
    1200    307.35086   -228374.51      4.96557    229.35003    669.20902    3422.6055    3205.7916    1957.7697 
    1210    308.62886   -228373.37      4.96557    229.35003    669.20902    3405.1505    3185.2732    1928.7025 
    1220    310.25982   -228372.43      4.96557    229.35003    669.20902    3384.1998    3164.9867    1904.3533 
    1230    312.19646   -228371.63      4.96557    229.35003    669.20902    3359.7883    3146.5326    1883.8551 
    1240    314.24712   -228371.07      4.96557    229.35003    669.20902    3334.4084     3129.954    1860.6521 
    1250    316.16704   -228371.03      4.96557    229.35003    669.20902    3310.4751    3112.9096    1831.5119 
    1260    317.78127   -228371.51      4.96557    229.35003    669.20902    3288.1247    3092.1932    1798.4006 
    1270     319.0015   -228372.42      4.96557    229.35003    669.20902    3266.3268    3066.4884    1766.6691 
    1280    319.73808   -228373.81      4.96557    229.35003    669.20902    3244.1877    3037.6806    1741.4597 
    1290    319.85134   -228375.64      4.96557    229.35003    669.20902    3221.8256     3010.633    1721.8763 
    1300    319.22643   -228377.95      4.96557    229.35003    669.20902    3200.0627    2989.4288    1703.4414 
    1310    317.86307   -228380.74      4.96557    229.35003    669.20902    3179.1527    2973.8032    1683.5832 
    1320    315.85607   -228383.79      4.96557    229.35003    669.20902    3159.1512    2960.3644    1663.1373 
    1330    313.30635   -228387.06      4.96557    229.35003    669.20902    3140.8407     2945.838    1647.1093 
    1340    310.28975   -228390.54      4.96557    229.35003    669.20902    3125.3726    2929.6647    1639.3071 
    1350    306.92208   -228394.08      4.96557    229.35003    669.20902    3113.3364    2914.5274    1637.2002 
    1360     303.4075   -228397.61      4.96557    229.35003    669.20902    3103.6272    2903.7043    1636.4305 
    1370    299.96928   -228400.96      4.96557    229.35003    669.20902    3094.1133    2898.9733    1635.2436 
    1380     296.7426   -228403.97      4.96557    229.35003    669.20902    3084.4217    2900.3113    1635.7497 
    1390    293.76297   -228406.78      4.96557    229.35003    669.20902    3076.5907    2906.1935    1642.5612 
    1400    291.05003    -228409.4      4.96557    229.35003    669.20902    3072.9171    2914.1017     1656.243 
    1410    288.66856   -228411.69      4.96557    229.35003    669.20902    3074.6195    2921.6335    1672.0656 
    1420    286.68665   -228413.65      4.96557    229.35003    669.20902    3081.4286    2928.3225    1685.5866 
    1430     285.1014   -228415.26      4.96557    229.35003    669.20902    3091.7316    2936.0705    1696.0338 
    1440    283.84866   -228416.46      4.96557    229.35003    669.20902    3103.6567    2947.1011    1706.6412 
    1450    282.87996   -228417.33      4.96557    229.35003    669.20902    3116.0947     2961.987    1720.8231 
    1460    282.19493   -228417.82      4.96557    229.35003    669.20902    3129.2743    2979.1185    1736.9955 
    1470    281.79207    -228417.8      4.96557    229.35003    669.20902     3144.995    2995.8537    1750.4059 
    1480    281.61991   -228417.33      4.96557    229.35003    669.20902    3165.6967    3010.7975    1758.5259 
    1490    281.60948    -228416.5      4.96557    229.35003    669.20902    3192.1926    3024.1598    1762.7743 
    1500    281.74752   -228415.27      4.96557    229.35003    669.20902    3221.8508    3036.3262    1766.5927 
    1510     282.0854   -228413.62      4.96557    229.35003    669.20902    3249.6589    3047.7842    1771.8612 
    1520    282.66938   -228411.54      4.96557    229.35003    669.20902      3272.26    3059.6639    1776.5987 
    1530    283.48817   -228409.08      4.96557    229.35003    669.20902    3290.5373    3073.4372    1777.1582 
    1540    284.50871   -228406.37      4.96557    229.35003    669.20902    3308.0824    3089.6609    1772.5751 
    1550    285.74502   -228403.46      4.96557    229.35003    669.20902    3327.5247    3106.6508    1765.6904 
    1560    287.25916    -228400.3      4.96557    229.35003    669.20902    3348.1718    3121.4578    1760.6679 
    1570    289.08872   -228396.95      4.96557    229.35003    669.20902    3366.5554    3132.5705    1759.2824 
    1580     291.1906    -228393.5      4.96557    229.35003    669.20902    3379.1103    3141.4391    1758.4869 
    1590    293.47034   -228390.03      4.96557    229.35003    669.20902    3384.4565    3151.1559    1753.4865 
    1600     295.8558   -228386.67      4.96557    229.35003    669.20902    3384.0352    3163.4019    1742.8416 
    1610    298.32322   -228383.44      4.96557    229.35003    669.20902    3380.8109    3176.8496    1729.2919 
    1620    300.85719   -228380.27      4.96557    229.35003    669.20902    3376.6556    3188.2836    1717.5165 
    1630    303.40176   -228377.18      4.96557    229.35003    669.20902    3372.0868    3195.1816    1709.4975 
    1640    305.85317   -228374.24      4.96557    229.35003    669.20902    3367.2052    3197.4405    1701.2393 
    1650    308.09234   -228371.55      4.96557    229.35003    669.20902    3360.7971     3196.397    1687.3015 
    1660      310.018   -228369.15      4.96557    229.35003    669.20902    3351.0957    3193.0778    1666.0792 
    1670    311.56278   -228367.05      4.96557    229.35003    669.20902    3337.8347    3187.8512    1640.1057 
    1680    312.70071   -228365.36      4.96557    229.35003    669.20902    3322.0762    3180.3813    1613.8863 
    1690    313.44288      -228364      4.96557    229.35003    669.20902    3305.5982    3169.9743    1588.4853 
    1700    313.82105    -228362.9      4.96557    229.35003    669.20902    3290.8876     3156.433    1560.4276 
    1710    313.86912   -228362.15      4.96557    229.35003    669.20902     3279.364    3139.8264    1527.2612 
    1720    313.61386   -228361.76      4.96557    229.35003    669.20902    3269.7794    3120.4066    1489.9225 
    1730    313.08387   -228361.68      4.96557    229.35003    669.20902    3258.8977    3098.8968    1451.8717 
    1740    312.32209      -228362      4.96557    229.35003    669.20902    3244.0566    3076.3972    1416.3468 
    1750    311.38714   -228362.69      4.96557    229.35003    669.20902    3225.4804    3054.2019    1382.3567 
    1760     310.3531   -228363.68      4.96557    229.35003    669.20902    3205.7938    3033.0217    1346.9669 
    1770    309.30225   -228364.94      4.96557    229.35003    669.20902     3188.132    3012.3902    1309.9657 
    1780    308.29879   -228366.33      4.96557    229.35003    669.20902    3174.1339    2991.6112    1274.1926 
    1790    307.35745   -228367.88      4.96557    229.35003    669.20902    3162.6808    2970.6475    1244.3062 
    1800    306.43688   -228369.63      4.96557    229.35003    669.20902    3151.1277     2950.294    1222.1351 
    1810    305.48109   -228371.51      4.96557    229.35003    669.20902    3137.7341    2931.6769    1204.1048 
    1820    304.47815   -228373.56      4.96557    229.35003    669.20902    3122.5407    2915.2071    1186.2118 
    1830    303.46638   -228375.73      4.96557    229.35003    669.20902    3107.3201    2900.4296    1167.6028 
    1840    302.48084   -228377.83      4.96557    229.35003    669.20902    3094.7638    2886.6405    1151.1952 
    1850    301.50831   -228379.87      4.96557    229.35003    669.20902    3087.2379    2873.7066    1141.9729 
    1860    300.50871   -228381.96      4.96557    229.35003    669.20902     3085.535    2862.3923    1141.0828 
    1870    299.48013   -228384.04      4.96557    229.35003    669.20902     3087.692    2853.0534    1144.4305 
    1880    298.48249   -228386.03      4.96557    229.35003    669.20902    3090.3722    2845.2998    1147.5779 
    1890    297.58828   -228387.92      4.96557    229.35003    669.20902     3091.954    2839.6031     1149.472 
    1900    296.82896   -228389.74      4.96557    229.35003    669.20902    3093.4134    2836.8974    1153.3744 
    1910     296.2077   -228391.43      4.96557    229.35003    669.20902    3097.6547    2837.4608    1163.2536 
    1920    295.75576   -228393.04      4.96557    229.35003    669.20902    3107.3818    2840.7677    1178.9372 
    1930    295.54321   -228394.57      4.96557    229.35003    669.20902    3122.0511    2845.4706    1196.9191 
    1940    295.61551   -228395.87      4.96557    229.35003    669.20902    3138.2976    2850.6658    1214.4237 
    1950    295.93542   -228397.02      4.96557    229.35003    669.20902    3153.1467    2857.7263    1232.1518 
    1960    296.40605   -228398.15      4.96557    229.35003    669.20902    3165.5908     2868.868    1253.2933 
    1970    296.94993   -228399.23      4.96557    229.35003    669.20902    3176.4867     2884.539    1278.9589 
    1980    297.54692   -228400.26      4.96557    229.35003    669.20902    3187.6494    2902.6512    1306.5416 
    1990     298.1823   -228401.19      4.96557    229.35003    669.20902    3200.1082    2919.7723    1332.4597 
    2000     298.7807   -228401.97      4.96557    229.35003    669.20902    3213.4738    2934.1628    1355.6668 
    2010    299.21685   -228402.76      4.96557    229.35003    669.20902    3226.4784    2946.8848    1378.7785 
    2020    299.39016   -228403.59      4.96557    229.35003    669.20902    3237.3662    2959.7727    1404.3158 
    2030    299.28009   -228404.39      4.96557    229.35003    669.20902    3244.8953    2973.7144    1431.0164 
    2040    298.92566   -228405.19      4.96557    229.35003    669.20902    3249.1711    2987.8624    1454.8301 
    2050    298.36629   -228405.92      4.96557    229.35003    669.20902    3251.2253    3000.0048    1472.4129 
    2060    297.62599   -228406.55      4.96557    229.35003    669.20902    3252.3074    3008.4451    1484.2737 
    2070     296.7478   -228407.17      4.96557    229.35003    669.20902    3253.0811    3012.6023    1493.9841 
    2080     295.8221   -228407.72      4.96557    229.35003    669.20902    3252.8481    3012.5386    1503.9669 
    2090    294.97355   -228408.16      4.96557    229.35003    669.20902    3250.1651    3009.1942    1513.0333 
    2100    294.32021   -228408.47      4.96557    229.35003    669.20902    3244.2326    3004.1597    1517.5283 
    2110     293.9505   -228408.62      4.96557    229.35003    669.20902    3234.9613    2998.6079    1515.0176 
    2120      293.932   -228408.63      4.96557    229.35003    669.20902    3222.6406    2992.8204    1507.0013 
    2130    294.32006   -228408.53      4.96557    229.35003    669.20902    3207.9294    2985.5252    1497.2802 
    2140    295.14879   -228408.27      4.96557    229.35003    669.20902    3191.5706    2974.6536    1488.3376 
    2150    296.41393    -228407.9      4.96557    229.35003    669.20902      3174.18      2959.46    1479.0767 
    2160    298.06525   -228407.44      4.96557    229.35003    669.20902    3156.0167      2941.35    1465.9864 
    2170    300.01803   -228406.95      4.96557    229.35003    669.20902    3136.5803    2922.8692    1447.3546 
    2180     302.1672   -228406.46      4.96557    229.35003    669.20902    3114.9767    2906.2977    1424.8958 
    2190    304.39213   -228406.01      4.96557    229.35003    669.20902    3090.6318    2892.0057    1401.9836 
    2200    306.55646   -228405.66      4.96557    229.35003    669.20902    3064.0093    2878.2011    1380.7034 
    2210    308.50824   -228405.47      4.96557    229.35003    669.20902    3036.8839    2862.6322    1359.0752 
    2220    310.09335   -228405.47      4.96557    229.35003    669.20902    3011.2849    2844.3898    1333.4579 
    2230    311.18386   -228405.79      4.96557    229.35003    669.20902    2988.2624    2824.5939    1302.9769 
    2240    311.70283    -228406.4      4.96557    229.35003    669.20902     2967.399    2805.5628    1269.8926 
    2250    311.62979   -228407.28      4.96557    229.35003    669.20902    2947.2689     2789.219    1237.9549 
    2260    310.97934   -228408.43      4.96557    229.35003    669.20902    2926.7173    2776.0797    1208.7619 
    2270    309.77398    -228409.8      4.96557    229.35003    669.20902    2906.0224    2765.2487    1179.7094 
    2280    308.04764    -228411.4      4.96557    229.35003    669.20902    2886.7057    2754.9564    1147.9527 
    2290    305.87328   -228413.26      4.96557    229.35003    669.20902    2870.7652    2743.8645    1113.6083 
    2300    303.37887   -228415.21      4.96557    229.35003    669.20902    2859.4775     2732.116    1079.6483 
    2310    300.72533   -228417.18      4.96557    229.35003    669.20902    2852.6349     2721.202    1050.3981 
    2320    298.05473    -228419.1      4.96557    229.35003    669.20902    2848.8837    2713.1469    1026.8575 
    2330    295.45812   -228420.85      4.96557    229.35003    669.20902     2846.478    2709.2592    1005.9563 
    2340    292.98846   -228422.47      4.96557    229.35003    669.20902    2844.2043    2708.8973    984.93702 
    2350    290.69092   -228423.95      4.96557    229.35003    669.20902    2842.4594     2709.817     963.8212 
    2360    288.62117   -228425.18      4.96557    229.35003    669.20902    2842.9968    2710.0303    945.99391 
    2370    286.83951   -228426.17      4.96557    229.35003    669.20902    2847.7377    2709.4824    935.24108 
    2380    285.39297   -228426.81      4.96557    229.35003    669.20902    2857.4026    2709.9702    931.01794 
    2390    284.30611   -228427.05      4.96557    229.35003    669.20902    2870.3533    2713.5218    929.63012 
    2400    283.57765   -228426.92      4.96557    229.35003    669.20902    2883.7588    2720.7856    928.07017 
    2410    283.18452   -228426.41      4.96557    229.35003    669.20902    2895.6285     2730.649    926.37513 
    2420    283.10352   -228425.53      4.96557    229.35003    669.20902     2906.027    2741.3453    928.24253 
    2430    283.33669   -228424.32      4.96557    229.35003    669.20902    2917.1915    2752.0045    936.51676 
    2440     283.9153   -228422.74      4.96557    229.35003    669.20902    2931.4881    2763.0798    949.42283 
    2450    284.86997   -228420.75      4.96557    229.35003    669.20902    2949.2766    2775.5437    962.91031 
    2460    286.19068   -228418.39      4.96557    229.35003    669.20902    2969.0788    2790.1793    974.45854 
    2470    287.82369    -228415.8      4.96557    229.35003    669.20902    2988.3768    2807.0797     985.4748 
    2480    289.71059   -228413.05      4.96557    229.35003    669.20902    3004.9395    2825.3575    999.77375 
    2490    291.82285   -228410.18      4.96557    229.35003    669.20902    3018.7619    2843.9331    1018.7887 
    2500    294.15321   -228407.25      4.96557    229.35003    669.20902     3031.867    2862.2642     1040.319 
    2510    296.67544   -228404.29      4.96557    229.35003    669.20902    3046.7674    2880.0611    1061.0095 
    2520    299.32373   -228401.33      4.96557    229.35003    669.20902    3064.6612     2897.161    1079.2857 
    2530    302.01121   -228398.46      4.96557    229.35003    669.20902    3084.0511    2913.2852    1097.0341 
    2540    304.65061   -228395.74      4.96557    229.35003    669.20902    3101.8691    2927.7559    1117.2309 
    2550    307.14908   -228393.21      4.96557    229.35003    669.20902    3116.0939    2940.1806    1140.0248 
    2560    309.39492   -228390.93      4.96557    229.35003    669.20902    3127.1401    2950.8843    1162.8386 
    2570    311.27201   -228388.94      4.96557    229.35003    669.20902    3137.6401    2960.0544    1182.6884 
    2580    312.69835    -228387.3      4.96557    229.35003    669.20902    3150.1359    2967.1093    1198.4489 
    2590    313.63642   -228385.98      4.96557    229.35003    669.20902    3164.2648    2970.5138    1211.5522 
    2600    314.05692   -228384.93      4.96557    229.35003    669.20902    3177.5047    2969.0675    1223.7099 
    2610    313.90682   -228384.22      4.96557    229.35003    669.20902    3187.7454    2963.6974    1234.6071 
    2620    313.13584   -228383.93      4.96557    229.35003    669.20902    3194.3527     2956.865    1241.8305 
    2630    311.76672   -228384.04      4.96557    229.35003    669.20902    3198.0173    2950.5207    1242.7124 
    2640    309.92811   -228384.47      4.96557    229.35003    669.20902    3199.8119    2944.5927    1236.4699 
    2650    307.80138   -228385.09      4.96557    229.35003    669.20902     3199.935    2937.0529    1225.0497 
    2660    305.53723   -228385.82      4.96557    229.35003    669.20902     3198.035    2926.1469    1211.1527 
    2670    303.22948   -228386.68      4.96557    229.35003    669.20902     3193.995    2912.3616    1194.9858 
    2680    300.96436   -228387.65      4.96557    229.35003    669.20902    3187.7106    2898.0098    1174.3532 
    2690     298.8786   -228388.72      4.96557    229.35003    669.20902    3178.6475    2885.5994    1147.3516 
    2700    297.14881   -228389.77      4.96557    229.35003    669.20902    3165.8607    2875.9193    1114.2755 
    2710    295.91964   -228390.66      4.96557    229.35003    669.20902    3148.7742    2867.5281     1078.175 
    2720    295.24515   -228391.38      4.96557    229.35003    669.20902    3128.3507    2858.5009    1042.4329 
    2730    295.09241   -228392.02      4.96557    229.35003    669.20902    3106.9157    2847.6953    1007.1946 
    2740    295.39478   -228392.57      4.96557    229.35003    669.20902    3086.4175    2834.8753     969.9332 
    2750    296.09766   -228393.08      4.96557    229.35003    669.20902    3067.2387    2820.9778    928.74235 
    2760    297.15508    -228393.5      4.96557    229.35003    669.20902    3047.9445    2807.3044    884.75153 
    2770    298.49381    -228393.8      4.96557    229.35003    669.20902    3026.4751    2794.4225    841.89775 
    2780    299.98527   -228394.03      4.96557    229.35003    669.20902    3002.3917    2781.9765    802.83467 
    2790     301.4549   -228394.23      4.96557    229.35003    669.20902    2977.5551    2768.6592    766.30449 
    2800    302.72845   -228394.51      4.96557    229.35003    669.20902    2954.7238    2752.9672    729.31313 
    2810    303.67779   -228394.93      4.96557    229.35003    669.20902    2935.9667    2734.1934    690.21003 
    2820    304.23416   -228395.43      4.96557    229.35003    669.20902    2921.2396    2713.0259    651.05449 
    2830    304.36939   -228396.01      4.96557    229.35003    669.20902    2908.5204    2691.6003    616.44963 
    2840    304.06956   -228396.67      4.96557    229.35003    669.20902    2895.5664    2672.1406    588.45241 
    2850    303.33087   -228397.39      4.96557    229.35003    669.20902    2881.2666    2655.2145     564.8546 
    2860    302.17657   -228398.19      4.96557    229.35003    669.20902    2866.1607    2640.0105    541.95265 
    2870    300.66892   -228399.07      4.96557    229.35003    669.20902     2852.238    2625.2773    518.43695 
    2880    298.90773   -228399.98      4.96557    229.35003    669.20902    2841.4619    2610.5486     497.7462 
    2890    297.02264   -228400.88      4.96557    229.35003    669.20902     2834.407    2596.9787    484.98987 
    2900    295.16382   -228401.68      4.96557    229.35003    669.20902     2830.006    2586.6319    481.50534 
    2910     293.4841   -228402.33      4.96557    229.35003    669.20902     2825.904    2581.1101    484.04105 
    2920    292.10435   -228402.78      4.96557    229.35003    669.20902    2820.1153    2580.8148    488.19971 
    2930    291.08765   -228403.01      4.96557    229.35003    669.20902    2812.8433    2584.9411    492.77438 
    2940    290.45803   -228403.09      4.96557    229.35003    669.20902    2806.3555    2592.3911    501.32219 
    2950       290.25   -228403.04      4.96557    229.35003    669.20902     2803.173    2602.0346    517.93208 
    2960    290.53241   -228402.73      4.96557    229.35003    669.20902    2804.5867    2612.9304    542.57745 
    2970    291.36718   -228402.15      4.96557    229.35003    669.20902    2810.0561    2625.3621    571.12174 
    2980    292.73587    -228401.3      4.96557    229.35003    669.20902    2817.8595     2640.453    599.13743 
    2990    294.52115   -228400.22      4.96557    229.35003    669.20902    2826.5402    2659.0048    626.28946 
    3000    296.57261    -228399.1      4.96557    229.35003    669.20902    2835.7907     2680.945    655.73578 
    3010    298.78668   -228397.99      4.96557    229.35003    669.20902      2846.44    2704.5195    689.43872 
    3020    301.11919   -228396.83      4.96557    229.35003    669.20902    2859.7288    2726.9438    725.74923 
    3030    303.52546   -228395.65      4.96557    229.35003    669.20902    2876.7572    2746.8721     760.9271 
    3040    305.90333    -228394.5      4.96557    229.35003    669.20902    2897.8393    2764.7627    792.38399 
    3050    308.10599   -228393.46      4.96557    229.35003    669.20902    2921.5941    2782.0796    821.30301 
    3060    310.00074   -228392.68      4.96557    229.35003    669.20902    2945.3053    2800.1997    850.98231 
    3070    311.50443    -228392.2      4.96557    229.35003    669.20902    2966.6054    2818.9143    882.35508 
    3080    312.57469   -228392.01      4.96557    229.35003    669.20902    2984.8851    2836.8967    912.88177 
    3090    313.18703   -228392.16      4.96557    229.35003    669.20902    3001.2105    2852.8159    939.33636 
    3100    313.32671   -228392.62      4.96557    229.35003    669.20902    3017.0965    2865.4685    960.73897 
    3110    312.99024   -228393.36      4.96557    229.35003    669.20902    3032.8162     2874.605    979.26928 
    3120    312.17777   -228394.44      4.96557    229.35003    669.20902    3046.8799    2881.1166    998.26019 
    3130     310.8904   -228395.83      4.96557    229.35003    669.20902    3057.1631    2886.3321     1018.249 
    3140    309.15655   -228397.51      4.96557    229.35003    669.20902    3062.1843    2891.5278    1036.1885 
    3150    307.06491   -228399.45      4.96557    229.35003    669.20902    3061.7368    2896.8469    1048.6433 
    3160    304.75419   -228401.48      4.96557    229.35003    669.20902     3057.047    2900.9616    1054.8905 
    3170    302.35403   -228403.48      4.96557    229.35003    669.20902    3049.9512    2902.2338    1057.3387 
    3180     299.9364   -228405.45      4.96557    229.35003    669.20902     3042.063    2899.7883    1058.9833 
    3190    297.53616   -228407.39      4.96557    229.35003    669.20902    3034.0117     2894.004    1059.4894 
    3200    295.21775   -228409.29      4.96557    229.35003    669.20902    3024.8756    2886.3878    1055.0448 
    3210    293.10448   -228411.05      4.96557    229.35003    669.20902    3012.9363    2878.3223     1042.467 
    3220    291.33222   -228412.57      4.96557    229.35003    669.20902    2997.5843    2870.5332    1022.3541 
    3230    289.98127    -228413.8      4.96557    229.35003    669.20902    2980.0709    2862.9746    998.50068 
    3240    289.06331   -228414.76      4.96557    229.35003    669.20902     2962.799    2854.3644    973.67228 
    3250    288.56895   -228415.49      4.96557    229.35003    669.20902    2947.7063    2842.8016    946.37862 
    3260    288.50841   -228415.99      4.96557    229.35003    669.20902    2934.8193    2827.1915    912.66966 
    3270    288.89872   -228416.21      4.96557    229.35003    669.20902    2922.6377    2808.2766    870.95757 
    3280      289.726   -228416.16      4.96557    229.35003    669.20902    2909.7051    2788.6803    824.43356 
    3290    290.93438   -228415.87      4.96557    229.35003    669.20902    2895.3683    2770.9979     778.4665 
    3300    292.44861   -228415.33      4.96557    229.35003    669.20902    2879.9157     2755.646    735.43355 
    3310    294.19108   -228414.63      4.96557    229.35003    669.20902    2864.2314    2740.5216    692.99219 
    3320    296.07007   -228413.77      4.96557    229.35003    669.20902    2849.1611    2722.6704     647.7142 
    3330    297.96877   -228412.78      4.96557    229.35003    669.20902    2835.3858    2700.9257    599.81536 
    3340    299.76646    -228411.8      4.96557    229.35003    669.20902    2822.9907    2677.1858     553.7593 
    3350    301.37376   -228410.85      4.96557    229.35003    669.20902    2810.8599    2654.6225    514.18552 
    3360    302.74099   -228409.87      4.96557    229.35003    669.20902    2797.4652    2635.3234    481.73086 
    3370     303.8305   -228408.95      4.96557    229.35003    669.20902    2782.0836    2619.5112    453.40533 
    3380    304.59063   -228408.12      4.96557    229.35003    669.20902    2765.4362    2605.5404    426.63896 
    3390    304.97051   -228407.38      4.96557    229.35003    669.20902     2749.713     2591.398    402.51173 
    3400    304.95975   -228406.81      4.96557    229.35003    669.20902    2737.1651     2576.545    384.87763 
    3410    304.60562    -228406.4      4.96557    229.35003    669.20902    2728.4766    2562.2083    376.14775 
    3420    303.99088   -228406.07      4.96557    229.35003    669.20902     2722.724    2550.4542    374.68148 
    3430     303.1972   -228405.81      4.96557    229.35003    669.20902     2718.589    2543.2242    376.65685 
    3440    302.28917   -228405.62      4.96557    229.35003    669.20902    2715.4126    2541.0623    380.07597 
    3450    301.32648    -228405.5      4.96557    229.35003    669.20902    2714.1598    2542.9237     386.6543 
    3460    300.38053   -228405.44      4.96557    229.35003    669.20902    2716.8872    2547.0637      399.608 
    3470    299.53542   -228405.41      4.96557    229.35003    669.20902    2725.3729    2552.3047    419.70629 
    3480    298.87319   -228405.36      4.96557    229.35003    669.20902     2740.112    2558.9749    443.77547 
    3490    298.45159   -228405.26      4.96557    229.35003    669.20902    2759.9225    2568.3558    467.59811 
    3500     298.2879   -228405.09      4.96557    229.35003    669.20902    2782.6589    2581.5814    490.00852 
    3510    298.36056   -228404.91      4.96557    229.35003    669.20902    2806.7682    2599.0816    513.53199 
    3520    298.62779   -228404.71      4.96557    229.35003    669.20902    2832.0035    2620.0724    541.23669 
    3530    299.04866    -228404.5      4.96557    229.35003    669.20902    2859.0044    2642.8007    572.91318 
    3540    299.58469   -228404.26      4.96557    229.35003    669.20902    2888.4712    2665.8519    604.50519 
    3550       300.18   -228403.98      4.96557    229.35003    669.20902    2919.9669    2688.5071    632.00725 
    3560     300.7478   -228403.69      4.96557    229.35003    669.20902    2951.7229    2710.9147    655.54436 
    3570    301.18612   -228403.43      4.96557    229.35003    669.20902    2981.4543    2733.9602    678.51805 
    3580    301.41091    -228403.2      4.96557    229.35003    669.20902    3007.2754    2758.1225    703.53548 
    3590    301.37413   -228403.02      4.96557    229.35003    669.20902     3028.543    2782.9749     729.2359 
    3600     301.0529   -228402.87      4.96557    229.35003    669.20902    3045.7788    2807.4387    751.02273 
    3610    300.43426   -228402.73      4.96557    229.35003    669.20902    3059.7457    2829.7632    765.73398 
    3620    299.52181    -228402.6      4.96557    229.35003    669.20902    3070.6313    2848.2731    774.67296 
    3630    298.35332   -228402.47      4.96557    229.35003    669.20902    3077.6421     2862.451     781.6655 
    3640     297.0015   -228402.28      4.96557    229.35003    669.20902    3079.6118    2872.9747    788.97263 
    3650    295.55411   -228402.01      4.96557    229.35003    669.20902    3076.1733    2881.4428     794.7333 
    3660    294.09899   -228401.65      4.96557    229.35003    669.20902    3067.8909    2889.2147    794.64489 
    3670    292.73182   -228401.14      4.96557    229.35003    669.20902    3055.8377    2895.7255    786.45438 
    3680    291.56595   -228400.46      4.96557    229.35003    669.20902    3041.2689    2898.5311    772.24277 
    3690    290.71553   -228399.59      4.96557    229.35003    669.20902    3025.0547    2895.1466    756.18154 
    3700    290.26416   -228398.47      4.96557    229.35003    669.20902    3007.6991    2885.2851    740.34182 
    3710    290.25624   -228397.15      4.96557    229.35003    669.20902    2989.7366    2871.3854    722.92071 
    3720    290.71902   -228395.65      4.96557    229.35003    669.20902    2971.2605    2856.6652    700.48292 
    3730    291.68025   -228393.94      4.96557    229.35003    669.20902    2951.8732    2842.8649    671.73509 
    3740    293.14858   -228392.04      4.96557    229.35003    669.20902    2931.6904    2829.1901    639.33047 
    3750     295.0754   -228389.98      4.96557    229.35003    669.20902    2911.7039    2813.2263    607.68591 
    3760    297.35045   -228387.84      4.96557    229.35003    669.20902    2893.3536    2793.4604    578.46518 
    3770    299.84347   -228385.74      4.96557    229.35003    669.20902    2877.5823    2770.5785      549.222 
    3780     302.4453    -228383.7      4.96557    229.35003    669.20902    2863.8827    2746.7897    516.75704 
    3790    305.06481   -228381.73      4.96557    229.35003    669.20902    2850.8189    2724.7902     480.9361 
    3800    307.59516    -228379.9      4.96557    229.35003    669.20902    2837.2814    2706.4045    445.60878 
    3810    309.89864   -228378.25      4.96557    229.35003    669.20902    2823.0664    2691.5749    415.01698 
    3820    311.83303   -228376.84      4.96557    229.35003    669.20902    2809.0151    2678.7683     389.4672 
    3830    313.28792   -228375.79      4.96557    229.35003    669.20902    2796.2054     2666.203    365.48774 
    3840    314.19339   -228375.09      4.96557    229.35003    669.20902    2784.9866    2653.2311    339.71939 
    3850    314.50939   -228374.74      4.96557    229.35003    669.20902    2775.1956    2640.9202    312.94568 
    3860    314.22446   -228374.78      4.96557    229.35003    669.20902    2766.4136    2631.3095    289.90537 
    3870     313.3668    -228375.2      4.96557    229.35003    669.20902    2757.7724    2626.0969    274.11733 
    3880    312.00577   -228375.91      4.96557    229.35003    669.20902    2748.6749    2625.4311     264.4671 
    3890     310.2318   -228376.91      4.96557    229.35003    669.20902    2739.5482    2627.7997    256.87902 
    3900    308.13708   -228378.15      4.96557    229.35003    669.20902    2731.6854    2631.2934    248.43859 
    3910    305.82367   -228379.59      4.96557    229.35003    669.20902    2726.8395    2634.5368    240.78992 
    3920    303.42283    -228381.2      4.96557    229.35003    669.20902     2726.164    2637.1571    238.40217 
    3930    301.08944   -228382.85      4.96557    229.35003    669.20902    2729.1879    2640.1508    243.33369 
    3940    298.96699   -228384.45      4.96557    229.35003    669.20902    2734.4696    2645.2414    253.51111 
    3950    297.15472   -228385.99      4.96557    229.35003    669.20902    2740.8993    2653.7287    264.82917 
    3960    295.70835   -228387.43      4.96557    229.35003    669.20902    2748.3389     2665.431    275.24453 
    3970    294.66521   -228388.76      4.96557    229.35003    669.20902    2757.7336    2678.3285    287.27336 
    3980    294.05562   -228389.96      4.96557    229.35003    669.20902      2770.58    2689.7332    304.69389 
    3990    293.88918      -228391      4.96557    229.35003    669.20902    2787.4249    2698.4316    327.93844 
    4000    294.13935   -228391.88      4.96557    229.35003    669.20902    2807.2685     2705.592    353.48769 
    4010     294.7472   -228392.63      4.96557    229.35003    669.20902    2828.2444    2713.7643    376.81836 
    4020    295.64056   -228393.25      4.96557    229.35003    669.20902    2848.3826    2724.8141    397.03778 
    4030    296.74599   -228393.79      4.96557    229.35003    669.20902    2866.5614    2738.4687     417.8258 
    4040    297.98425   -228394.22      4.96557    229.35003    669.20902    2883.2165    2752.3705    442.75351 
    4050    299.26577   -228394.59      4.96557    229.35003    669.20902    2899.4482    2763.7526    471.25062 
    4060    300.49652   -228394.96      4.96557    229.35003    669.20902    2915.6222    2771.6107    498.34391 
    4070    301.59049   -228395.33      4.96557    229.35003    669.20902    2931.1354    2776.9095    519.06133 
    4080    302.48193   -228395.76      4.96557    229.35003    669.20902    2944.5086    2781.4744    533.77919 
    4090    303.13059   -228396.27      4.96557    229.35003    669.20902    2954.1096    2786.9048    547.29741 
    4100    303.52153   -228396.84      4.96557    229.35003    669.20902    2959.3628    2793.2451    563.13233 
    4110    303.65975   -228397.48      4.96557    229.35003    669.20902    2960.7665    2798.7657    579.90464 
    4120    303.55789    -228398.2      4.96557    229.35003    669.20902    2959.3881    2801.3818    592.10952 
    4130    303.23001   -228398.99      4.96557    229.35003    669.20902    2956.4353    2799.9052    595.67388 
    4140    302.70077    -228399.9      4.96557    229.35003    669.20902    2952.4691    2794.5713    592.41927 
    4150    302.01716   -228400.88      4.96557    229.35003    669.20902    2947.0443     2786.801    587.40606 
    4160    301.24585   -228401.88      4.96557    229.35003    669.20902    2939.2817    2778.1902    583.58251 
    4170    300.45123   -228402.92      4.96557    229.35003    669.20902    2928.6538    2769.6904    578.83614 
    4180    299.67393   -228403.94      4.96557    229.35003    669.20902    2915.4712    2760.8949    568.08264 
    4190    298.93471   -228404.93      4.96557    229.35003    669.20902    2900.9626    2750.2769    549.18974 
    4200    298.25234   -228405.92      4.96557    229.35003    669.20902    2886.5103    2736.4363    525.26312 
    4210    297.64811   -228406.85      4.96557    229.35003    669.20902    2872.8511    2718.9866    501.03947 
    4220     297.1344   -228407.71      4.96557    229.35003    669.20902    2860.0074    2699.0665    478.43212 
    4230    296.70548   -228408.53      4.96557    229.35003    669.20902    2847.2225    2678.9805    454.58783 
    4240    296.34776   -228409.24      4.96557    229.35003    669.20902    2833.2885    2660.4897    425.24799 
    4250    296.05839   -228409.86      4.96557    229.35003    669.20902    2817.5113    2643.6511    390.18037 
    4260    295.84177   -228410.39      4.96557    229.35003    669.20902    2800.4358     2627.179    353.65897 
    4270    295.68874   -228410.77      4.96557    229.35003    669.20902    2783.5351    2609.6549     320.0948 
    4280     295.5731   -228411.06      4.96557    229.35003    669.20902    2768.4126    2590.9653    290.08944 
    4290     295.4755    -228411.3      4.96557    229.35003    669.20902    2755.3409    2572.1542    259.88811 
    4300    295.40909   -228411.41      4.96557    229.35003    669.20902    2742.5996    2554.5482    225.94191 
    4310    295.41276    -228411.4      4.96557    229.35003    669.20902    2727.9974    2539.4191     189.7727 
    4320    295.51277   -228411.27      4.96557    229.35003    669.20902    2710.8228    2527.2896    156.87856 
    4330    295.69999   -228410.97      4.96557    229.35003    669.20902    2692.4943    2517.9235    131.20951 
    4340    295.95066    -228410.6      4.96557    229.35003    669.20902     2675.546     2510.745    111.48351 
    4350    296.26108    -228410.2      4.96557    229.35003    669.20902    2661.5327    2504.4219    92.806787 
    4360    296.65493   -228409.67      4.96557    229.35003    669.20902    2649.9264    2497.8692    72.380876 
    4370    297.15544   -228409.06      4.96557    229.35003    669.20902    2639.2129    2491.6159      53.1305 
    4380    297.75495   -228408.36      4.96557    229.35003    669.20902    2628.5064    2487.3479    40.856338 
    4390    298.41723   -228407.59      4.96557    229.35003    669.20902    2617.9413    2486.8321    37.914785 
    4400    299.10387    -228406.8      4.96557    229.35003    669.20902    2608.6793    2490.5231    40.737957 
    4410    299.79033   -228406.02      4.96557    229.35003    669.20902    2602.1767    2496.5506    43.583788 
    4420    300.46134   -228405.22      4.96557    229.35003    669.20902    2599.2802    2502.4008    44.755541 
    4430    301.09909   -228404.43      4.96557    229.35003    669.20902     2600.231     2506.878    48.537705 
    4440    301.67961   -228403.67      4.96557    229.35003    669.20902    2604.8737    2510.6434    59.971259 
    4450    302.17785   -228402.93      4.96557    229.35003    669.20902    2612.3357    2515.9162    78.945285 
    4460    302.57126   -228402.26      4.96557    229.35003    669.20902    2621.3402    2524.4813    100.07757 
    4470    302.84162   -228401.65      4.96557    229.35003    669.20902    2631.1748    2536.2597    117.91861 
    4480    302.98133   -228401.12      4.96557    229.35003    669.20902    2642.0883    2549.8323    132.59478 
    4490    302.99677   -228400.68      4.96557    229.35003    669.20902      2655.07    2563.1368    149.51603 
    4500    302.90201   -228400.29      4.96557    229.35003    669.20902    2671.1302    2574.8636    172.89795 
    4510    302.70894   -228399.97      4.96557    229.35003    669.20902    2690.1794    2585.5713    200.82106 
    4520    302.42557   -228399.73      4.96557    229.35003    669.20902    2710.5843     2596.767    226.75147 
    4530    302.06558   -228399.53      4.96557    229.35003    669.20902    2729.9009    2609.7935    245.96018 
    4540    301.65297    -228399.4      4.96557    229.35003    669.20902    2746.3399    2625.0868    260.44474 
    4550    301.20956   -228399.31      4.96557    229.35003    669.20902    2760.0298    2641.6544     276.2411 
    4560    300.74473   -228399.23      4.96557    229.35003    669.20902    2772.7189    2657.8151    296.59549 
    4570    300.26593   -228399.21      4.96557    229.35003    669.20902    2786.1544    2672.2663     318.3166 
    4580    299.79743    -228399.2      4.96557    229.35003    669.20902    2800.4641    2684.4971    334.24528 
    4590    299.37825   -228399.15      4.96557    229.35003    669.20902    2813.9482    2694.9345     340.5618 
    4600    299.03182   -228399.07      4.96557    229.35003    669.20902    2824.2855    2704.7351    340.95717 
    4610    298.74454   -228398.95      4.96557    229.35003    669.20902    2830.4197    2715.0087    341.79254 
    4620    298.49034   -228398.84      4.96557    229.35003    669.20902    2833.2316    2725.8457    345.30499 
    4630    298.27524   -228398.74      4.96557    229.35003    669.20902     2834.344    2735.7626    347.08538 
    4640    298.14416   -228398.57      4.96557    229.35003    669.20902    2835.0384    2742.5838    340.04706 
    4650     298.1371   -228398.31      4.96557    229.35003    669.20902    2835.7233    2744.9589    322.74373 
    4660    298.24524      -228398      4.96557    229.35003    669.20902    2835.8934     2743.457    300.97537 
    4670    298.42528   -228397.64      4.96557    229.35003    669.20902    2834.6336    2740.1888    281.20598 
    4680    298.65622   -228397.29      4.96557    229.35003    669.20902    2830.9362    2736.7407    264.31045 
    4690    298.96263   -228396.94      4.96557    229.35003    669.20902    2824.1289    2733.0018    244.78642 
    4700     299.3747    -228396.5      4.96557    229.35003    669.20902    2814.6364    2727.5617    216.96872 
    4710    299.87728   -228396.02      4.96557    229.35003    669.20902    2804.0492    2718.7969    182.43235 
    4720    300.41262   -228395.56      4.96557    229.35003    669.20902    2793.9578    2706.3435    148.48467 
    4730    300.93374   -228395.14      4.96557    229.35003    669.20902    2784.7341    2691.1523    120.59631 
    4740    301.43695   -228394.77      4.96557    229.35003    669.20902    2775.2343    2674.5377    97.419133 
    4750    301.93157    -228394.4      4.96557    229.35003    669.20902    2763.5223    2657.8086    72.404666 
    4760    302.39273   -228394.03      4.96557    229.35003    669.20902    2748.5869    2641.8037    41.713215 
    4770    302.76056   -228393.74      4.96557    229.35003    669.20902    2731.2946    2626.4969    9.1032346 
    4780    302.98472   -228393.55      4.96557    229.35003    669.20902     2713.468    2611.2086   -18.281928 
    4790    303.05633   -228393.43      4.96557    229.35003    669.20902    2696.7052    2595.1033   -37.070145 
    4800    302.98938    -228393.4      4.96557    229.35003    669.20902    2681.7908    2578.1672   -50.990442 
    4810    302.78445   -228393.42      4.96557    229.35003    669.20902    2668.3622    2561.5812   -67.101157 
    4820     302.4273   -228393.49      4.96557    229.35003    669.20902    2655.2475     2546.942   -87.858672 
    4830    301.91917   -228393.64      4.96557    229.35003    669.20902    2641.4695    2535.4376   -108.44363 
    4840    301.29112   -228393.84      4.96557    229.35003    669.20902    2627.1701    2527.1393   -122.10823 
    4850    300.58243   -228394.05      4.96557    229.35003    669.20902    2613.9811    2521.2562   -127.12341 
    4860    299.81703   -228394.28      4.96557    229.35003    669.20902    2604.1377    2517.0647   -128.74031 
    4870    299.01375   -228394.53      4.96557    229.35003    669.20902    2598.9611    2514.0137   -133.67626 
    4880    298.21488   -228394.75      4.96557    229.35003    669.20902    2597.9641    2511.8472   -143.07894 
    4890    297.48784   -228394.94      4.96557    229.35003    669.20902    2599.3247    2511.1496   -151.21871 
    4900    296.89067   -228395.03      4.96557    229.35003    669.20902    2601.5888     2512.966   -151.40011 
    4910    296.44566   -228395.02      4.96557    229.35003    669.20902    2605.0254    2518.3928   -143.09057 
    4920    296.15575   -228394.96      4.96557    229.35003    669.20902    2610.9435    2527.6861   -132.44253 
    4930    296.03867   -228394.84      4.96557    229.35003    669.20902     2620.268    2538.9228   -125.68309 
    4940    296.13153    -228394.6      4.96557    229.35003    669.20902    2632.7529    2549.5615   -122.49319 
    4950    296.45894   -228394.27      4.96557    229.35003    669.20902    2647.3457    2558.6473    -116.1532 
    4960    297.00621   -228393.83      4.96557    229.35003    669.20902    2663.1466    2567.1285   -100.85504 
    4970    297.73351   -228393.32      4.96557    229.35003    669.20902    2679.5014    2577.3385   -78.372926 
    4980    298.60848   -228392.79      4.96557    229.35003    669.20902    2695.6993    2590.7209   -56.207096 
    4990    299.61103   -228392.21      4.96557    229.35003    669.20902    2711.1123    2606.1038   -39.850016 
    5000    300.70949   -228391.59      4.96557    229.35003    669.20902    2725.3423    2621.2605   -26.937643 
    5010     301.8461   -228391.01      4.96557    229.35003    669.20902    2738.6733    2634.4649   -9.8597495 
    5020    302.95601   -228390.47      4.96557    229.35003    669.20902    2751.9125    2645.2537    15.119182 
    5030    303.99652   -228390.01      4.96557    229.35003    669.20902    2765.1076    2654.7638    43.281922 
    5040    304.94445   -228389.66      4.96557    229.35003    669.20902    2777.1611    2664.2861    66.168363 
    5050    305.76788   -228389.39      4.96557    229.35003    669.20902    2786.7757    2674.3517    80.079956 
    5060    306.41853   -228389.26      4.96557    229.35003    669.20902    2793.0977    2685.0599    90.228864 
    5070     306.8591   -228389.34      4.96557    229.35003    669.20902    2796.4403    2695.5929    104.80569 
    5080    307.09049   -228389.59      4.96557    229.35003    669.20902    2798.3164    2704.3644    125.16724 
    5090    307.13976      -228390      4.96557    229.35003    669.20902    2800.0338    2710.2483    144.43696 
    5100    307.01984   -228390.56      4.96557    229.35003    669.20902    2801.9123    2713.1512    154.68423 
    5110    306.71698    -228391.3      4.96557    229.35003    669.20902    2803.3878    2714.2093    155.00351 
    5120     306.2238   -228392.24      4.96557    229.35003    669.20902    2803.0592    2714.9242    152.84047 
    5130    305.57152   -228393.35      4.96557    229.35003    669.20902    2799.7306    2715.7225    155.62569 
    5140    304.81661   -228394.58      4.96557    229.35003    669.20902    2793.7356    2715.7858    162.57389 
    5150    303.99491   -228395.87      4.96557    229.35003    669.20902    2786.7086    2713.7467    165.77246 
    5160    303.10166   -228397.24      4.96557    229.35003    669.20902    2780.5301    2708.7016     158.4661 
    5170     302.1233   -228398.69      4.96557    229.35003    669.20902    2775.7147    2700.7651    142.46555 
    5180    301.07548   -228400.21      4.96557    229.35003    669.20902    2770.8313    2690.5403    126.00806 
    5190    299.99817   -228401.69      4.96557    229.35003    669.20902    2763.8694    2678.9962    114.67835 
    5200    298.91848   -228403.14      4.96557    229.35003    669.20902    2753.7116    2666.9383    105.82054 
    5210    297.83116   -228404.52      4.96557    229.35003    669.20902    2740.9168    2654.5886    91.172954 
    5220    296.72484   -228405.83      4.96557    229.35003    669.20902    2727.2036    2641.7131     65.55912 
    5230    295.61701   -228407.08      4.96557    229.35003    669.20902    2713.8473    2627.4482    33.014431 
    5240    294.55002   -228408.19      4.96557    229.35003    669.20902    2700.8222    2610.7492    2.1233461 
    5250    293.56023   -228409.12      4.96557    229.35003    669.20902    2687.2972    2591.9639   -23.070615 
    5260    292.66287    -228409.9      4.96557    229.35003    669.20902    2672.1458    2572.4447   -46.641954 
    5270    291.87111   -228410.51      4.96557    229.35003    669.20902    2654.5285    2553.4862   -76.599259 
    5280    291.22327   -228410.92      4.96557    229.35003    669.20902    2634.5126    2535.8805   -115.81046 
    5290    290.77643   -228411.14      4.96557    229.35003    669.20902    2613.1132    2519.1891   -158.23104 
    5300    290.57524    -228411.1      4.96557    229.35003    669.20902    2591.9543    2502.2458   -195.26602 
    5310    290.63908   -228410.83      4.96557    229.35003    669.20902    2572.4687    2484.4743   -224.16931 
    5320    290.97628   -228410.37      4.96557    229.35003    669.20902      2554.81    2465.9608   -250.48693 
    5330    291.60051   -228409.67      4.96557    229.35003    669.20902    2537.7113    2447.5674    -281.7382 
    5340    292.52342   -228408.78      4.96557    229.35003    669.20902     2519.663    2430.7103   -318.21212 
    5350    293.72924   -228407.73      4.96557    229.35003    669.20902    2500.4015    2416.4059   -352.51219 
    5360    295.17003   -228406.49      4.96557    229.35003    669.20902    2481.2765    2404.8094   -377.23733 
    5370    296.78896   -228405.19      4.96557    229.35003    669.20902    2464.4432    2395.0566   -392.05646 
    5380     298.5363   -228403.83      4.96557    229.35003    669.20902    2451.4188    2385.7493   -404.22817 
    5390    300.35902    -228402.4      4.96557    229.35003    669.20902    2442.2212    2376.3956   -420.35045 
    5400    302.17907   -228400.99      4.96557    229.35003    669.20902    2435.6385    2367.9663   -438.51027 
    5410    303.89462   -228399.65      4.96557    229.35003    669.20902    2430.2032    2362.2102    -450.8124 
    5420    305.41405   -228398.44      4.96557    229.35003    669.20902    2425.0914    2360.4979   -451.82545 
    5430    306.68345    -228397.4      4.96557    229.35003    669.20902    2420.7767    2362.6952    -444.1238 
    5440    307.67611   -228396.51      4.96557    229.35003    669.20902    2418.8301    2367.3546   -435.99329 
    5450    308.36333   -228395.76      4.96557    229.35003    669.20902    2421.0119    2373.1049   -432.17607 
    5460    308.70438   -228395.24      4.96557    229.35003    669.20902    2428.0208    2379.4049   -428.87116 
    5470     308.6707   -228394.95      4.96557    229.35003    669.20902    2438.8103    2386.6668   -418.49085 
    5480    308.27584   -228394.89      4.96557    229.35003    669.20902    2451.0434    2395.9872   -397.65882 
    5490    307.57317   -228395.06      4.96557    229.35003    669.20902     2462.892    2408.4482    -371.0587 
    5500    306.62739   -228395.39      4.96557    229.35003    669.20902    2474.4293    2424.3209   -346.64919 
    5510    305.49453   -228395.87      4.96557    229.35003    669.20902    2487.3803    2442.7674   -327.18293 
    5520    304.22704    -228396.5      4.96557    229.35003    669.20902    2503.5379    2462.0587   -307.81587 
    5530    302.88826   -228397.24      4.96557    229.35003    669.20902    2523.2223    2480.4466   -281.94778 
    5540    301.55032   -228398.05      4.96557    229.35003    669.20902     2545.178     2497.384   -248.65035 
    5550    300.27605   -228398.88      4.96557    229.35003    669.20902    2567.5869     2514.041   -214.05471 
    5560    299.10741   -228399.73      4.96557    229.35003    669.20902    2589.1357    2532.2245   -185.18696 
    5570     298.0708   -228400.54      4.96557    229.35003    669.20902    2609.5661     2552.659     -163.161 
    5580    297.18784    -228401.3      4.96557    229.35003    669.20902    2629.1683     2574.241   -142.49881 
    5590     296.4746   -228402.01      4.96557    229.35003    669.20902    2648.3788      2594.61      -117.77 
    5600    295.93146    -228402.6      4.96557    229.35003    669.20902    2667.7362    2611.7831   -90.183533 
    5610    295.54163   -228403.09      4.96557    229.35003    669.20902    2687.5117    2625.4179   -66.705174 
    5620    295.28156   -228403.49      4.96557    229.35003    669.20902    2707.1386    2636.7072   -53.204422 
    5630    295.13213   -228403.77      4.96557    229.35003    669.20902    2725.0486    2647.1573   -48.868212 
    5640    295.08029   -228403.92      4.96557    229.35003    669.20902    2739.3386    2657.4695   -47.054729 
    5650    295.11177   -228403.96      4.96557    229.35003    669.20902    2748.8808    2667.0554   -42.891107 
    5660    295.20875   -228403.87      4.96557    229.35003    669.20902    2754.2184    2674.3355   -38.879718 
    5670    295.35739   -228403.67      4.96557    229.35003    669.20902    2757.1154    2677.6393   -42.111647 
    5680    295.55406   -228403.37      4.96557    229.35003    669.20902    2758.9966    2676.2645    -56.99999 
    5690    295.80382   -228402.94      4.96557    229.35003    669.20902    2759.5759    2670.8436   -80.478219 
    5700    296.11335   -228402.41      4.96557    229.35003    669.20902    2757.0319    2662.7751   -104.78607 
    5710    296.48535   -228401.78      4.96557    229.35003    669.20902    2749.3514     2653.442   -125.81162 
    5720    296.91974   -228401.07      4.96557    229.35003    669.20902    2735.8217    2643.2496   -146.99674 
    5730    297.41583   -228400.28      4.96557    229.35003    669.20902    2717.6102    2631.1717   -175.26955 
    5740    297.97069   -228399.44      4.96557    229.35003    669.20902    2696.9435     2615.714   -213.52098 
    5750    298.57752   -228398.55      4.96557    229.35003    669.20902    2675.4352    2596.1295   -256.81876 
    5760    299.22515   -228397.64      4.96557    229.35003    669.20902    2653.3615    2572.9417    -297.4371 
    5770    299.89904    -228396.7      4.96557    229.35003    669.20902    2629.8723    2547.8448   -332.74073 
    5780    300.58115   -228395.77      4.96557    229.35003    669.20902    2603.8388    2522.5694   -367.29533 
    5790    301.24693   -228394.84      4.96557    229.35003    669.20902     2575.141    2497.8566   -407.58817 
    5800    301.86608   -228393.94      4.96557    229.35003    669.20902    2544.7876    2473.3783   -454.59255 
    5810    302.40888   -228393.11      4.96557    229.35003    669.20902    2514.4124    2448.2733   -502.12003 
    5820    302.85343   -228392.33      4.96557    229.35003    669.20902    2485.6597    2422.1644   -543.31844 
    5830    303.18902   -228391.64      4.96557    229.35003    669.20902    2459.3807    2395.6805   -577.34837 
    5840     303.4123   -228391.03      4.96557    229.35003    669.20902    2435.3373    2369.9887   -609.48376 
    5850    303.52225   -228390.48      4.96557    229.35003    669.20902    2412.8413    2346.3538   -645.05008 
    5860    303.52089   -228390.02      4.96557    229.35003    669.20902    2391.3961    2325.8138   -682.79978 
    5870    303.41685   -228389.66      4.96557    229.35003    669.20902    2371.1811     2308.762   -715.76661 
    5880    303.22804   -228389.37      4.96557    229.35003    669.20902    2353.1875    2295.1134   -738.46706 
    5890    302.97962   -228389.17      4.96557    229.35003    669.20902    2338.7799    2284.3202   -752.07458 
    5900    302.69766   -228389.05      4.96557    229.35003    669.20902    2328.9067    2275.7559   -762.60983 
    5910    302.40558   -228388.99      4.96557    229.35003    669.20902    2323.4793    2269.4171   -773.92689 
    5920     302.1246   -228389.01      4.96557    229.35003    669.20902    2321.4786     2266.314   -783.19871 
    5930    301.87551   -228389.07      4.96557    229.35003    669.20902    2321.8539    2267.9702   -783.92106 
    5940    301.67795   -228389.18      4.96557    229.35003    669.20902    2324.2442    2275.2946   -772.79557 
    5950    301.54371   -228389.33      4.96557    229.35003    669.20902      2329.26    2287.5625   -753.44612 
    5960    301.47029    -228389.5      4.96557    229.35003    669.20902    2338.0943    2302.8415   -732.68218 
    5970    301.44196   -228389.72      4.96557    229.35003    669.20902    2351.5528    2319.4556   -713.24106 
    5980     301.4381   -228389.99      4.96557    229.35003    669.20902    2369.2966     2337.092   -691.39588 
    5990    301.44362   -228390.31      4.96557    229.35003    669.20902    2389.8768    2356.8176   -661.65031 
    6000     301.4496   -228390.66      4.96557    229.35003    669.20902    2411.7443    2379.9071    -623.3561 
    6010    301.44262   -228391.01      4.96557    229.35003    669.20902    2434.2147    2406.5414   -582.26018 
    6020    301.39737   -228391.42      4.96557    229.35003    669.20902    2457.6922    2435.4089   -544.80601 
    6030    301.28183   -228391.86      4.96557    229.35003    669.20902    2483.0209    2464.3498   -512.09094 
    6040    301.07371   -228392.32      4.96557    229.35003    669.20902    2510.4014    2491.6205   -479.55537 
    6050    300.77234   -228392.83      4.96557    229.35003    669.20902    2539.0082    2516.6888   -442.31466 
    6060    300.39102   -228393.37      4.96557    229.35003    669.20902    2567.3336    2540.1005   -401.50941 
    6070    299.94165   -228393.87      4.96557    229.35003    669.20902    2593.9244     2562.992   -363.77883 
    6080    299.43089   -228394.38      4.96557    229.35003    669.20902    2617.9873     2585.988   -334.19696 
    6090    298.86965    -228394.9      4.96557    229.35003    669.20902    2639.4903    2608.2552   -311.77453 
    6100    298.28452   -228395.37      4.96557    229.35003    669.20902    2658.5131    2628.1131   -290.93934 
    6110    297.71342   -228395.81      4.96557    229.35003    669.20902    2675.0294    2643.9796   -267.63815 
    6120    297.18892   -228396.18      4.96557    229.35003    669.20902    2689.2237    2655.2888   -244.44204 
    6130    296.73298   -228396.48      4.96557    229.35003    669.20902    2700.9694    2663.0201   -227.79029 
    6140    296.36616   -228396.72      4.96557    229.35003    669.20902    2709.4551    2668.5889   -221.24558 
    6150    296.11509   -228396.86      4.96557    229.35003    669.20902    2713.6159    2672.6883    -222.2464 
    6160    296.00576   -228396.89      4.96557    229.35003    669.20902    2712.6553    2675.2177   -224.53527 
    6170     296.0463   -228396.84      4.96557    229.35003    669.20902     2706.686    2675.3108    -225.1315 
    6180    296.22519   -228396.68      4.96557    229.35003    669.20902    2697.2694    2672.0652    -227.9263 
    6190    296.53112   -228396.45      4.96557    229.35003    669.20902    2686.2999    2665.1641   -238.99407 
    6200    296.96655   -228396.16      4.96557    229.35003    669.20902    2674.5742      2654.77   -260.20055 
    6210    297.53755   -228395.75      4.96557    229.35003    669.20902    2661.3333    2641.5334   -287.23469 
    6220    298.23016   -228395.27      4.96557    229.35003    669.20902    2645.0093    2626.6556   -313.38471 
    6230    299.00255   -228394.75      4.96557    229.35003    669.20902    2624.7489    2611.0436   -336.75824 
    6240    299.80817    -228394.2      4.96557    229.35003    669.20902    2601.4578    2594.9341   -362.02165 
    6250    300.62302    -228393.7      4.96557    229.35003    669.20902    2577.2493    2577.6042    -394.7786 
    6260    301.44302   -228393.19      4.96557    229.35003    669.20902    2554.1658    2557.8171   -435.31388 
    6270    302.25928   -228392.69      4.96557    229.35003    669.20902    2533.0441    2535.2435    -477.4903 
    6280    303.03984   -228392.25      4.96557    229.35003    669.20902    2513.1958    2510.8353   -514.51598 
    6290    303.74004   -228391.86      4.96557    229.35003    669.20902    2493.1993    2486.3459   -545.85124 
    6300    304.32915   -228391.59      4.96557    229.35003    669.20902    2472.2458    2463.4353   -576.84552 
    6310     304.7974   -228391.46      4.96557    229.35003    669.20902    2450.7434    2442.4927   -612.43759 
    6320    305.13981   -228391.41      4.96557    229.35003    669.20902    2430.1973    2422.6718    -651.5005 
    6330    305.34105   -228391.49      4.96557    229.35003    669.20902    2412.3887    2403.0813   -687.29541 
    6340    305.37732   -228391.72      4.96557    229.35003    669.20902    2398.2945    2383.3336   -714.42864 
    6350    305.23325   -228392.08      4.96557    229.35003    669.20902    2387.5579    2364.0419    -734.2654 
    6360    304.91147   -228392.58      4.96557    229.35003    669.20902    2378.9921    2346.8619   -752.74264 
    6370    304.42369   -228393.21      4.96557    229.35003    669.20902    2371.5284    2333.2496     -773.665 
    6380    303.78033   -228393.92      4.96557    229.35003    669.20902    2364.9552     2323.681   -794.43365 
    6390    302.99149   -228394.72      4.96557    229.35003    669.20902    2360.1874    2317.7802   -808.74609 
    6400    302.07474   -228395.61      4.96557    229.35003    669.20902    2358.5569    2314.3348   -813.64883 
    6410    301.06049   -228396.53      4.96557    229.35003    669.20902     2361.065    2312.2654   -812.62068 
    6420    299.98878   -228397.48      4.96557    229.35003    669.20902    2367.7491    2311.5537   -811.61296 
    6430    298.90304   -228398.42      4.96557    229.35003    669.20902     2377.593    2313.2186   -812.76769 
    6440    297.84881    -228399.3      4.96557    229.35003    669.20902    2389.2723    2318.5476   -812.10724 
    6450    296.87254   -228400.14      4.96557    229.35003    669.20902    2401.9572    2328.1817   -803.87162 
    6460    296.01693   -228400.89      4.96557    229.35003    669.20902     2415.606    2341.5099   -787.12915 
    6470    295.31673   -228401.52      4.96557    229.35003    669.20902    2430.9699    2356.9563   -766.91678 
    6480    294.79843   -228402.05      4.96557    229.35003    669.20902    2448.9566    2372.8304   -748.89343 
    6490     294.4816   -228402.47      4.96557    229.35003    669.20902    2469.6118    2388.3812   -733.80188 
    6500    294.37785   -228402.74      4.96557    229.35003    669.20902    2492.0146    2404.1677   -717.06302 
    6510    294.48749   -228402.89      4.96557    229.35003    669.20902     2514.694    2421.4316   -693.66652 
    6520    294.79853   -228402.91      4.96557    229.35003    669.20902    2536.2137    2440.9784   -664.15433 
    6530    295.28896   -228402.78      4.96557    229.35003    669.20902    2555.9367    2462.2806   -634.45014 
    6540    295.92649   -228402.53      4.96557    229.35003    669.20902    2574.2039    2483.5847   -609.69882 
    6550    296.66402   -228402.19      4.96557    229.35003    669.20902    2591.7671    2502.9885   -589.71052 
    6560    297.44137   -228401.76      4.96557    229.35003    669.20902    2609.1625    2519.5446    -569.9161 
    6570    298.20165    -228401.3      4.96557    229.35003    669.20902    2625.9501    2533.6224    -546.4892 
    6580    298.90882    -228400.8      4.96557    229.35003    669.20902    2640.6783    2546.4524   -521.27084 
    6590    299.54648   -228400.25      4.96557    229.35003    669.20902    2651.7995    2559.0479   -500.39175 
    6600    300.09819   -228399.66      4.96557    229.35003    669.20902    2658.7544    2571.3532   -487.63396 
[...]
  541560    298.22178   -228187.42       43.142   -8.1427395    9.7807555 
  541570     298.6332   -228186.97       43.143   -8.1390057    9.7791681 
  541580    299.08442   -228186.49       43.144   -8.1353295    9.7771846 
  541590    299.56218   -228185.98       43.145   -8.1317255    9.7748136 
  541600    300.05337   -228185.43       43.146   -8.1281792    9.7720416 
  541610    300.53128   -228184.86       43.147   -8.1246551     9.768904 
  541620    300.95866    -228184.3       43.148   -8.1211318    9.7655111 
  541630    301.30717   -228183.78       43.149   -8.1176223    9.7619936 
  541640    301.57068   -228183.28        43.15   -8.1141509    9.7584338 
  541650    301.75642    -228182.8       43.151   -8.1107105    9.7548628 
  541660    301.86792   -228182.37       43.152   -8.1072521    9.7513338 
  541670    301.90207   -228181.97       43.153   -8.1037234    9.7479805 
  541680     301.8628   -228181.61       43.154    -8.100121    9.7449888 
  541690    301.77039   -228181.32       43.155   -8.0964933    9.7425117 
  541700    301.65221   -228181.06       43.156   -8.0928839    9.7406152 
  541710    301.52793   -228180.82       43.157   -8.0892687    9.7393157 
  541720    301.40813   -228180.62       43.158   -8.0855539    9.7386584 
  541730     301.3048   -228180.45       43.159   -8.0816461    9.7387464 
  541740     301.2359   -228180.29        43.16   -8.0775263     9.739687 
  541750    301.21599   -228180.15       43.161   -8.0732517     9.741522 
  541760    301.24587   -228180.01       43.162   -8.0688786    9.7442243 
  541770    301.31713   -228179.89       43.163   -8.0643823    9.7477599 
  541780    301.42597   -228179.81       43.164   -8.0596547    9.7521323 
  541790    301.57681   -228179.74       43.165   -8.0545854    9.7573537 
  541800    301.77052   -228179.68       43.166   -8.0491474    9.7633735 
  541810    301.99153   -228179.66       43.167   -8.0434028    9.7700628 
  541820     302.2096    -228179.7       43.168   -8.0374267    9.7772821 
  541830    302.39342    -228179.8       43.169   -8.0312274    9.7849654 
  541840    302.52027      -228180        43.17   -8.0247412    9.7931153 
  541850     302.5739   -228180.33       43.171   -8.0179018    9.8017034 
  541860    302.53958   -228180.75       43.172   -8.0107096    9.8105871 
  541870    302.40555   -228181.28       43.173   -8.0032329    9.8195363 
  541880    302.16884   -228181.93       43.174    -7.995547     9.828357 
  541890     301.8372   -228182.68       43.175   -7.9876793    9.8369822 
  541900     301.4259   -228183.48       43.176   -7.9796143    9.8454319 
  541910    300.95474   -228184.31       43.177   -7.9713405    9.8536856 
  541920    300.44705   -228185.16       43.178   -7.9628832    9.8616024 
  541930    299.92677   -228185.98       43.179   -7.9542908    9.8689751 
  541940    299.41239   -228186.73        43.18   -7.9455989     9.875656 
  541950    298.91305   -228187.42       43.181   -7.9368204    9.8816177 
  541960    298.43296   -228188.04       43.182   -7.9279681    9.8868886 
  541970     297.9796   -228188.59       43.183   -7.9190757    9.8914434 
  541980    297.56544   -228189.04       43.184   -7.9101862    9.8951783 
  541990    297.20205    -228189.4       43.185   -7.9013222     9.897992 
  542000     296.8963   -228189.69       43.186   -7.8924789    9.8998767 
  542010    296.65544   -228189.89       43.187   -7.8836545     9.900903 
  542020      296.495      -228190       43.188   -7.8748826    9.9011154 
  542030    296.43815   -228190.02       43.189   -7.8662213    9.9004643 
  542040    296.50576   -228189.95        43.19   -7.8577049    9.8988627 
  542050    296.70852   -228189.78       43.191   -7.8493096    9.8963175 
  542060    297.04859   -228189.53       43.192   -7.8409794    9.8929801 
  542070    297.52523   -228189.21       43.193   -7.8326864     9.889049 
  542080    298.13483   -228188.82       43.194   -7.8244608     9.884607 
  542090    298.86533   -228188.37       43.195   -7.8163521    9.8795784 
  542100     299.6927   -228187.87       43.196   -7.8083614    9.8738603 
  542110     300.5833   -228187.36       43.197    -7.800414    9.8674975 
  542120    301.49727   -228186.84       43.198   -7.7924128    9.8607207 
  542130    302.38876   -228186.35       43.199    -7.784316     9.853795 
  542140    303.20688    -228185.9         43.2   -7.7761588    9.8468309 
  542150     303.9029   -228185.56       43.201   -7.7679956    9.8397458 
  542160    304.43858    -228185.3       43.202   -7.7598234    9.8324175 
  542170    304.78703   -228185.13       43.203   -7.7515663    9.8248725 
  542180    304.92601   -228185.07       43.204   -7.7431381    9.8173153 
  542190    304.83315   -228185.15       43.205   -7.7345172    9.8099799 
  542200    304.49142   -228185.34       43.206   -7.7257573    9.8029589 
  542210    303.90022   -228185.68       43.207   -7.7169262     9.796193 
  542220    303.08126   -228186.17       43.208   -7.7080359    9.7895917 
  542230    302.07698   -228186.77       43.209   -7.6990343    9.7831719 
  542240     300.9462   -228187.45        43.21   -7.6898607    9.7770724 
  542250    299.75864   -228188.18       43.211   -7.6805024    9.7714436 
  542260    298.58727   -228188.93       43.212   -7.6709977    9.7663421 
  542270    297.50002   -228189.64       43.213   -7.6613871    9.7617328 
  542280      296.556    -228190.3       43.214   -7.6516728    9.7575757 
  542290    295.80878   -228190.89       43.215   -7.6418225    9.7538963 
  542300    295.30664   -228191.36       43.216   -7.6318158    9.7507687 
  542310    295.08074   -228191.66       43.217     -7.62167    9.7482499 
  542320    295.13017   -228191.82       43.218   -7.6114247    9.7463413 
  542330    295.42173   -228191.87       43.219   -7.6011091    9.7450134 
  542340    295.90852   -228191.83        43.22   -7.5907308    9.7442534 
  542350    296.54998    -228191.7       43.221   -7.5803013    9.7440788 
  542360    297.31164    -228191.5       43.222   -7.5698642    9.7445187 
  542370    298.14886   -228191.23       43.223   -7.5594904    9.7455836 
  542380    298.99906    -228190.9       43.224   -7.5492418    9.7472575 
  542390    299.79457   -228190.57       43.225   -7.5391428    9.7495203 
  542400    300.48117   -228190.25       43.226   -7.5291928    9.7523536 
  542410    301.02267   -228189.95       43.227    -7.519408    9.7557326 
  542420    301.39165   -228189.68       43.228    -7.509846    9.7596266 
  542430    301.56589   -228189.45       43.229   -7.5005847    9.7640159 
  542440    301.53926   -228189.26        43.23   -7.4916761     9.768902 
  542450    301.33133   -228189.13       43.231   -7.4831236    9.7742844 
  542460    300.97996   -228189.01       43.232   -7.4749048    9.7801217 
  542470    300.52552   -228188.91       43.233   -7.4670115      9.78632 
  542480    300.00497   -228188.83       43.234   -7.4594629    9.7927819 
  542490    299.46427   -228188.77       43.235   -7.4522882    9.7994653 
  542500    298.96585    -228188.7       43.236   -7.4454917    9.8063892 
  542510    298.57474   -228188.59       43.237   -7.4390494    9.8135701 
  542520    298.33591   -228188.41       43.238   -7.4329377    9.8209492 
  542530    298.26958   -228188.17       43.239   -7.4271545    9.8283931 
  542540    298.39017   -228187.85        43.24   -7.4217066    9.8357729 
  542550    298.72731   -228187.39       43.241   -7.4165796    9.8430448 
  542560    299.32583   -228186.72       43.242   -7.4117311    9.8502441 
  542570    300.22205   -228185.77       43.243   -7.4071232    9.8573981 
  542580    301.40466   -228184.47       43.244   -7.4027607    9.8644513 
  542590    302.77281   -228182.93       43.245   -7.3986882    9.8712829 
  542600    304.13464   -228181.33       43.246   -7.3949418    9.8778005 
  542610    305.28221   -228179.88       43.247   -7.3915034    9.8840027 
  542620     306.0811   -228178.71       43.248   -7.3883111    9.8899425 
  542630    306.49389   -228177.89       43.249   -7.3853177    9.8956347 
  542640    306.55394   -228177.36        43.25   -7.3825391    9.9010105 
  542650    306.33202   -228177.07       43.251   -7.3800364    9.9059744 
  542660    305.90593   -228176.96       43.252   -7.3778469    9.9104965 
  542670    305.33878      -228177       43.253   -7.3759341    9.9146353 
  542680    304.67633   -228177.16       43.254   -7.3742067    9.9184606 
  542690    303.96088   -228177.44       43.255   -7.3725855    9.9219625 
  542700    303.24172    -228177.8       43.256    -7.371044    9.9250512 
  542710    302.56673   -228178.23       43.257   -7.3695829    9.9276502 
  542720    301.96522   -228178.68       43.258   -7.3681682    9.9297836 
  542730    301.44301   -228179.16       43.259   -7.3667054    9.9315552 
  542740    300.99433   -228179.67        43.26   -7.3650785    9.9330422 
  542750    300.61683    -228180.2       43.261   -7.3632085    9.9342196 
  542760    300.31391   -228180.73       43.262   -7.3610631    9.9350007 
  542770    300.08544   -228181.24       43.263   -7.3586064    9.9353503 
  542780    299.92155   -228181.73       43.264   -7.3557479    9.9353453 
  542790    299.80691   -228182.19       43.265   -7.3523552    9.9351153 
  542800    299.72981   -228182.64       43.266   -7.3483253    9.9347311 
  542810    299.68702   -228183.07       43.267   -7.3436385    9.9341657 
  542820     299.6804   -228183.48       43.268   -7.3383327    9.9333738 
  542830    299.71147   -228183.86       43.269   -7.3324237    9.9323961 
  542840    299.77979   -228184.24        43.27   -7.3258521    9.9313727 
  542850    299.88457    -228184.6       43.271   -7.3185197    9.9304431 
  542860    300.02517   -228184.94       43.272   -7.3103798     9.929648 
  542870    300.19723   -228185.27       43.273   -7.3014869    9.9289432 
  542880    300.38757    -228185.6       43.274   -7.2919544    9.9283138 
  542890    300.57575   -228185.95       43.275   -7.2818642     9.927863 
  542900    300.74236   -228186.32       43.276   -7.2712225    9.9277715 
  542910    300.87644   -228186.71       43.277   -7.2600033    9.9281678 
  542920    300.97248   -228187.12       43.278   -7.2482279    9.9290451 
  542930    301.01855   -228187.54       43.279   -7.2359923    9.9303156 
  542940    300.99079   -228187.97        43.28   -7.2234152    9.9319447 
  542950    300.86439   -228188.45       43.281    -7.210571    9.9340244 
  542960    300.63009   -228188.96       43.282   -7.1974805     9.936708 
  542970    300.29806   -228189.48       43.283   -7.1841692    9.9400775 
  542980    299.88451   -228189.99       43.284   -7.1707181     9.944084 
  542990    299.39808   -228190.49       43.285   -7.1572454    9.9486109 
  543000     298.8454   -228190.96       43.286   -7.1438366     9.953587 
  543010    298.24765   -228191.41       43.287   -7.1305027    9.9590358 
  543020    297.64409    -228191.8       43.288   -7.1172203    9.9650162 
  543030    297.07608    -228192.1       43.289   -7.1040128    9.9715347 
  543040    296.57041   -228192.32        43.29   -7.0909831    9.9785173 
  543050    296.14325   -228192.46       43.291   -7.0782568      9.98586 
  543060    295.81852   -228192.52       43.292   -7.0658921    9.9934906 
  543070    295.63226   -228192.48       43.293    -7.053854    10.001374 
  543080    295.61438   -228192.33       43.294   -7.0420797     10.00947 
  543090    295.77064   -228192.05       43.295   -7.0305685    10.017707 
  543100    296.08685   -228191.68       43.296   -7.0194026    10.025993 
  543110    296.55007   -228191.24       43.297   -7.0086813    10.034262 
  543120    297.15482   -228190.72       43.298   -6.9984422    10.042476 
  543130    297.88589   -228190.13       43.299   -6.9886517    10.050593 
  543140    298.70148    -228189.5         43.3   -6.9792682    10.058536 
  543150    299.54198    -228188.9       43.301   -6.9703021    10.066211 
  543160    300.35589   -228188.35       43.302   -6.9618076    10.073552 
  543170    301.11101   -228187.87       43.303   -6.9538237    10.080545 
  543180    301.77983   -228187.47       43.304   -6.9463376    10.087213 
  543190    302.32552   -228187.19       43.305   -6.9393161    10.093558 
  543200    302.71384   -228187.03       43.306   -6.9327642    10.099555 
  543210    302.93827      -228187       43.307   -6.9267354    10.105173 
  543220    303.02422   -228187.05       43.308   -6.9212738     10.11042 
  543230    303.00189   -228187.14       43.309   -6.9163477    10.115343 
  543240    302.87859   -228187.25        43.31   -6.9118573    10.119998 
  543250    302.64283   -228187.41       43.311   -6.9077156    10.124418 
  543260    302.29215   -228187.63       43.312   -6.9039214    10.128625 
  543270    301.84958   -228187.88       43.313   -6.9005409    10.132667 
  543280    301.35204   -228188.14       43.314   -6.8976105    10.136614 
  543290    300.82825   -228188.41       43.315   -6.8950574    10.140527 
  543300    300.29465   -228188.68       43.316   -6.8927202    10.144441 
  543310    299.76946   -228188.95       43.317   -6.8904522    10.148372 
  543320    299.28194   -228189.21       43.318   -6.8882015    10.152362 
  543330    298.86577   -228189.46       43.319   -6.8859933    10.156495 
  543340    298.54848   -228189.67        43.32   -6.8838355    10.160868 
  543350    298.34962   -228189.85       43.321   -6.8816467    10.165529 
  543360    298.28466   -228189.98       43.322   -6.8792739    10.170473 
  543370     298.3624   -228190.08       43.323   -6.8765728    10.175687 
  543380    298.57714   -228190.12       43.324   -6.8734649    10.181202 
  543390    298.90987   -228190.14       43.325   -6.8699211    10.187092 
  543400    299.33992   -228190.15       43.326   -6.8659037    10.193419 
  543410    299.85083   -228190.15       43.327   -6.8613353     10.20019 
  543420    300.42031   -228190.12       43.328   -6.8561239    10.207378 
  543430    301.00662   -228190.08       43.329   -6.8502061    10.214964 
  543440    301.55222   -228190.09        43.33   -6.8435551     10.22297 
  543450    302.00552   -228190.15       43.331   -6.8361509    10.231424 
  543460    302.33645   -228190.26       43.332   -6.8279554    10.240302 
  543470    302.52871   -228190.44       43.333   -6.8189298    10.249529 
  543480    302.56251   -228190.69       43.334   -6.8090746    10.259028 
  543490    302.41213      -228191       43.335   -6.7984436    10.268776 
  543500    302.06266   -228191.41       43.336   -6.7871108    10.278781 
  543510    301.52543   -228191.93       43.337   -6.7751257     10.28901 
  543520    300.83544   -228192.52       43.338   -6.7625085    10.299339 
  543530    300.03781   -228193.16       43.339   -6.7492908    10.309605 
  543540    299.18115   -228193.81        43.34   -6.7355544    10.319704 
  543550    298.31932   -228194.48       43.341   -6.7214233     10.32963 
  543560    297.50944   -228195.11       43.342   -6.7070167    10.339414 
  543570     296.8014   -228195.66       43.343   -6.6924163    10.349026 
  543580    296.22993   -228196.16       43.344   -6.6776827    10.358337 
  543590    295.81871   -228196.58       43.345   -6.6628944    10.367207 
  543600     295.5891    -228196.9       43.346   -6.6481594    10.375589 
  543610    295.55759    -228197.1       43.347   -6.6335808    10.383548 
  543620    295.72248   -228197.19       43.348   -6.6192185    10.391169 
  543630    296.05652   -228197.16       43.349   -6.6050935    10.398448 
  543640    296.51688   -228197.04        43.35   -6.5912386    10.405296 
  543650    297.06317   -228196.84       43.351   -6.5777255    10.411636 
  543660    297.66545   -228196.57       43.352   -6.5646379      10.4175 
  543670    298.29873   -228196.22       43.353   -6.5520129    10.422997 
  543680    298.93524   -228195.76       43.354   -6.5398174    10.428204 
  543690    299.54398   -228195.23       43.355   -6.5279923    10.433086 
  543700    300.09629   -228194.64       43.356   -6.5165195    10.437528 
  543710    300.57074   -228193.99       43.357   -6.5054387    10.441456 
  543720    300.95573   -228193.31       43.358   -6.4947924     10.44491 
  543730    301.25187    -228192.6       43.359   -6.4845584    10.447992 
  543740    301.47169   -228191.88        43.36   -6.4746442    10.450748 
  543750    301.63242   -228191.11       43.361   -6.4649501     10.45311 
  543760     301.7455   -228190.34       43.362   -6.4554339    10.454939 
  543770    301.81271   -228189.58       43.363   -6.4461066    10.456139 
  543780    301.83401   -228188.86       43.364   -6.4369698    10.456721 
  543790    301.81849    -228188.2       43.365   -6.4279627     10.45676 
  543800    301.78505   -228187.58       43.366   -6.4189851     10.45631 
  543810    301.75136   -228187.01       43.367   -6.4099667    10.455349 
  543820    301.72304   -228186.48       43.368   -6.4009071    10.453805 
  543830    301.69321   -228186.01       43.369    -6.391844    10.451614 
  543840    301.65039   -228185.59        43.37   -6.3827872     10.44876 
  543850    301.58564   -228185.25       43.371    -6.373697    10.445276 
  543860    301.49402   -228184.97       43.372   -6.3645334    10.441218 
  543870    301.37312   -228184.74       43.373   -6.3553217    10.436648 
  543880     301.2221   -228184.54       43.374   -6.3461627    10.431613 
  543890     301.0411   -228184.39       43.375   -6.3371723    10.426134 
  543900     300.8306   -228184.26       43.376    -6.328418    10.420198 
  543910    300.59333   -228184.16       43.377   -6.3199188      10.4138 
  543920    300.33993    -228184.1       43.378   -6.3117088    10.406995 
  543930    300.09308   -228184.05       43.379   -6.3038923    10.399909 
  543940    299.88435      -228184        43.38   -6.2966314    10.392702 
  543950    299.74478   -228183.95       43.381   -6.2900772    10.385486 
  543960    299.69592    -228183.9       43.382   -6.2843154    10.378303 
  543970    299.74762   -228183.83       43.383   -6.2793792    10.371174 
  543980    299.90152   -228183.78       43.384   -6.2753086    10.364176 
  543990    300.15388   -228183.75       43.385     -6.27219    10.357468 
  544000     300.4963   -228183.72       43.386   -6.2701357    10.351234 
  544010    300.91506   -228183.72       43.387   -6.2692228    10.345601 
  544020    301.38831   -228183.74       43.388   -6.2694669    10.340625 
  544030     301.8828   -228183.76       43.389   -6.2708445     10.33635 
  544040    302.35395   -228183.82        43.39   -6.2733333    10.332874 
  544050    302.75287   -228183.95       43.391   -6.2769457    10.330333 
  544060    303.03912   -228184.14       43.392   -6.2817047    10.328824 
  544070    303.18909    -228184.4       43.393   -6.2876026    10.328352 
  544080    303.19214   -228184.71       43.394   -6.2945878     10.32887 
  544090     303.0419   -228185.07       43.395    -6.302589    10.330369 
  544100    302.73498   -228185.49       43.396   -6.3115473    10.332912 
  544110    302.27937   -228185.96       43.397   -6.3214256    10.336564 
  544120    301.70285   -228186.48       43.398   -6.3321904    10.341288 
  544130    301.05051   -228187.04       43.399   -6.3437881    10.346918 
  544140    300.37432   -228187.59         43.4   -6.3561422     10.35326 

===================================================================================
=   BAD TERMINATION OF ONE OF YOUR APPLICATION PROCESSES
=   PID 14141 RUNNING AT me01l4114grd01
=   EXIT CODE: 15
=   CLEANING UP REMAINING PROCESSES
=   YOU CAN IGNORE THE BELOW CLEANUP MESSAGES
===================================================================================
YOUR APPLICATION TERMINATED WITH THE EXIT STRING: Terminated (signal 15)
This typically refers to a problem with your application.
Please see the FAQ page for debugging suggestions
