LAMMPS data file via write_data, version 7 Aug 2019, timestep = 460

3250 atoms
2 atom types
250 bonds
1 bond types

0.0000000000000000e+00 1.0000000000000000e+03 xlo xhi
0.0000000000000000e+00 1.0000000000000000e+03 ylo yhi
0.0000000000000000e+00 5.0000000000000000e+01 zlo zhi

Masses

1 1
2 2

Atoms # bond

416 0 2 2.3670136101390298e+02 2.3977456066746944e+02 4.4552056907933228e+01 0 0 0
428 0 2 1.8844775864316512e+02 2.4147951567614427e+02 2.7310998447849883e+01 0 0 0
346 0 2 1.7821396057410814e+02 2.4203536903580437e+02 4.4422369238185865e+01 0 0 0
271 0 2 1.7470331544741211e+02 2.3862272465537430e+02 2.6606664143785213e+01 0 0 0
415 0 2 1.5887704405881325e+02 2.4647949647460109e+02 2.9044862431029262e+01 0 0 0
347 0 2 1.3519572379775147e+02 2.3452986880882170e+02 3.7175253493327297e+01 0 0 0
412 0 2 4.6885964016842642e+01 1.2397231074235043e+01 1.8013133233419214e+01 0 0 0
372 0 2 1.6362326041032713e+02 1.6137716367904897e+01 1.1329949768879427e+01 0 0 0
396 0 2 1.6415815249279055e+02 6.0689463308402090e+00 3.9049121569399312e-02 0 0 0
299 0 2 1.9497958672930469e+02 2.1914159423631691e+01 1.5563871648890837e+01 0 0 0
267 0 2 2.0800936092064219e+02 1.3328993233539626e+01 1.0194638050251936e+00 0 0 0
293 0 2 2.1253141118797072e+02 1.5427836224170324e+01 1.4782170981532975e+01 0 0 0
311 0 2 2.0777154630411954e+02 1.6378733337101867e+01 1.3868559833554810e+01 0 0 0
353 0 2 2.1271006679754242e+02 1.8092666295400200e+01 4.1721213395577488e+00 0 0 0
361 0 2 2.0664129136439473e+02 2.0183961382221412e+01 1.1591947549764042e+01 0 0 0
425 0 2 2.2294282271663789e+02 2.1398533145617009e-02 1.7982257328919253e+01 0 0 0
441 0 2 2.2800117788277620e+02 1.5796675819808932e+01 2.4736525176435954e+01 0 0 0
334 0 2 1.2073712615330570e+02 2.2887925860885497e+02 3.8684971951267208e+01 0 0 0
317 0 2 1.3287573313940118e+02 2.4244687391558983e+02 4.0230494965906487e+01 0 0 0
383 0 2 8.4562129846104483e+01 2.3571632347801531e+02 3.4212434750149228e+01 0 0 0
407 0 2 5.5526974636841089e+01 2.4186272138816432e+02 4.9337918543879837e+01 0 0 0
364 0 2 1.3793159888029638e+02 2.1638238114136382e+02 3.6933992145086634e+01 0 0 0
322 0 2 1.4828493033921575e+02 2.2482421119922037e+02 3.1025881264836475e+01 0 0 0
420 0 2 9.6999402203131186e+00 2.6895282802588905e+01 1.4509031555852401e+00 0 0 0
254 0 2 2.6479511068425847e+01 4.1142527033175583e+01 2.4122592329104705e+01 0 0 0
274 0 2 2.7371468500872826e+01 3.2271094169593923e+01 1.9013985418255434e+01 0 0 0
310 0 2 4.2424302567925444e+01 2.5253259122955267e+01 2.1576303975459329e+01 0 0 0
431 0 2 5.0397560489549093e+01 3.1799147851671631e+01 2.2413897152251515e+01 0 0 0
312 0 2 7.3066947550078368e+01 3.6187474167061723e+01 1.0143916290320416e+01 0 0 0
336 0 2 9.3594469639283815e+01 4.2251227443223463e+01 5.8189819128340963e+00 0 0 0
300 0 2 1.1721488373224385e+02 3.0550887822430063e+01 2.3438581579103403e+01 0 0 0
331 0 2 1.2512860918656393e+02 3.6534598579879194e+01 1.8499166014836712e+00 0 0 0
278 0 2 1.8581722638840660e+02 3.0123909949382725e+01 1.4627725963773077e+01 0 0 0
262 0 2 2.1503158063396418e+02 3.5775715036213271e+01 1.4122130681817479e+01 0 0 0
373 0 2 2.2336076303541697e+02 2.4344336252819904e+01 7.7629700572057496e+00 0 0 0
297 0 2 2.4091360356701242e+02 3.4935150777425221e+01 7.7539558092849123e+00 0 0 0
13 0 1 1.9565052041400783e+00 4.8000000000000000e+01 0.0000000000000000e+00 0 0 0
14 0 1 2.4571733097629327e+00 5.2000000000000000e+01 0.0000000000000000e+00 0 0 0
15 0 1 2.9400285020291546e+00 5.6000000000000000e+01 0.0000000000000000e+00 0 0 0
16 0 1 3.3922115210891954e+00 6.0000000000000000e+01 0.0000000000000000e+00 0 0 0
17 0 1 3.7996180390094350e+00 6.4000000000000000e+01 0.0000000000000000e+00 0 0 0
18 0 1 4.1510609221646835e+00 6.8000000000000000e+01 0.0000000000000000e+00 0 0 0
423 0 2 1.2141071265629060e+01 5.4984761427615190e+01 6.4442656964269780e+00 0 0 0
269 0 2 4.1177175958257720e+01 6.4796330437434989e+01 1.5962830984947658e+00 0 0 0
326 0 2 9.4785636800707152e+01 6.2197709485049224e+01 1.7845165761115574e+01 0 0 0
433 0 2 1.1471749987207237e+02 5.7020349920271130e+01 1.7051055499841951e+01 0 0 0
313 0 2 1.6445907864927270e+02 6.3734858326490439e+01 9.5881946662385928e+00 0 0 0
341 0 2 1.9545756848317458e+02 5.5353496715125388e+01 1.6310964555624391e+01 0 0 0
400 0 2 1.8224856638454301e+02 5.1655225014153501e+01 8.4683406438996744e+00 0 0 0
279 0 2 2.0813094415149232e+02 5.6778354131047777e+01 1.3689894026000934e+01 0 0 0
19 0 1 4.4472616914514198e+00 7.2000000000000000e+01 0.0000000000000000e+00 0 0 0
20 0 1 4.6988149519922304e+00 7.6000000000000000e+01 0.0000000000000000e+00 0 0 0
21 0 1 4.9215214696796199e+00 8.0000000000000000e+01 0.0000000000000000e+00 0 0 0
22 0 1 5.1323654792041848e+00 8.4000000000000000e+01 0.0000000000000000e+00 0 0 0
23 0 1 5.3479521061933335e+00 8.8000000000000000e+01 0.0000000000000000e+00 0 0 0
349 0 2 2.2019954408528260e+01 8.9373744134499574e+01 5.2258834267155656e+00 0 0 0
303 0 2 2.4101722996729297e+01 7.7658406029296302e+01 1.0241506719142899e+01 0 0 0
301 0 2 6.7000876677688609e+01 8.3734321912626896e+01 1.6137419276003456e+01 0 0 0
315 0 2 8.3660187238669110e+01 7.6766920311733571e+01 1.1081483965311891e+01 0 0 0
342 0 2 1.3131965935757367e+02 8.9514822740813173e+01 2.3781290242346603e+01 0 0 0
405 0 2 1.3286548300314018e+02 7.0172833777113283e+01 1.9740864597140281e+01 0 0 0
432 0 2 1.4684768866135164e+02 6.9103331337265359e+01 2.0984489270944376e+01 0 0 0
289 0 2 1.6570946162832408e+02 7.8921587243174017e+01 2.1755839801279752e+01 0 0 0
345 0 2 2.2050765679241516e+02 7.2187710121361405e+01 1.2942200486055668e+01 0 0 0
24 0 1 5.5681387017585537e+00 9.2000000000000000e+01 0.0000000000000000e+00 0 0 0
25 0 1 5.7920304389548614e+00 9.6000000000000000e+01 0.0000000000000000e+00 0 0 0
26 0 1 6.0129066377075437e+00 1.0000000000000000e+02 0.0000000000000000e+00 0 0 0
27 0 1 6.2102088308015864e+00 1.0400000000000000e+02 0.0000000000000000e+00 0 0 0
28 0 1 6.3726254849299915e+00 1.0800000000000000e+02 0.0000000000000000e+00 0 0 0
29 0 1 6.4878816740809659e+00 1.1200000000000000e+02 0.0000000000000000e+00 0 0 0
357 0 2 6.3123200118133429e+00 9.1162438546848691e+01 8.3552328442946227e+00 0 0 0
284 0 2 6.9322305298094790e+01 9.9985145078965061e+01 2.2516667108292072e+01 0 0 0
256 0 2 1.0103571652482995e+02 1.0728763281707077e+02 9.1622378254133459e+00 0 0 0
292 0 2 1.2965383200424435e+02 9.1954495334976585e+01 2.3960154747571867e+01 0 0 0
321 0 2 1.2900018139230096e+02 1.0604866040220888e+02 1.7991768996227425e+01 0 0 0
377 0 2 1.3459301047706651e+02 1.0472708805684330e+02 7.4084485682698196e+00 0 0 0
366 0 2 1.4304152184307648e+02 9.8857616586078706e+01 2.4998098111244897e+01 0 0 0
290 0 2 1.6755497789362212e+02 9.6513458106905901e+01 5.0845201383738408e+00 0 0 0
291 0 2 2.0468325782785342e+02 1.1151431273273859e+02 1.1052704956872716e+01 0 0 0
282 0 2 2.3514571470913742e+02 9.4027116472845478e+01 1.5687327955703870e+01 0 0 0
367 0 2 2.4764067039249497e+02 9.6747286662807355e+01 1.5823470901615670e+00 0 0 0
30 0 1 6.5509854996493742e+00 1.1600000000000000e+02 0.0000000000000000e+00 0 0 0
31 0 1 6.5712784776881978e+00 1.2000000000000000e+02 0.0000000000000000e+00 0 0 0
32 0 1 6.5519052899389818e+00 1.2400000000000000e+02 0.0000000000000000e+00 0 0 0
33 0 1 6.4981189863681701e+00 1.2800000000000000e+02 0.0000000000000000e+00 0 0 0
34 0 1 6.4247425631346076e+00 1.3200000000000000e+02 0.0000000000000000e+00 0 0 0
35 0 1 6.3382001813693938e+00 1.3600000000000000e+02 0.0000000000000000e+00 0 0 0
266 0 2 4.1894226820158877e+01 1.1627016641025904e+02 7.6343428611915289e+00 0 0 0
314 0 2 3.9634386095979430e+01 1.3512711512629275e+02 4.0711963801044959e+00 0 0 0
435 0 2 6.0993266785979863e+01 1.1383487196352094e+02 1.1134654544822245e+01 0 0 0
393 0 2 9.3836872882133761e+01 1.1632253002204118e+02 1.6381040223120265e+00 0 0 0
329 0 2 1.4280467487070928e+02 1.1817055201072738e+02 4.6233822147470818e+00 0 0 0
426 0 2 1.7790999597772489e+02 1.3330239762240200e+02 2.0669841985530148e+01 0 0 0
304 0 2 1.8433573757500187e+02 1.3074142305680616e+02 1.8554865787064127e+01 0 0 0
381 0 2 1.9992350982498542e+02 1.1442962852978596e+02 1.0938335005630895e+01 0 0 0
387 0 2 1.9885343322476999e+02 1.2965220870899606e+02 3.2335886048309455e+00 0 0 0
319 0 2 2.2884117636309992e+02 1.3365113462025818e+02 1.3730978133962946e+01 0 0 0
379 0 2 2.3467097861444159e+02 1.1513757291954829e+02 5.8594029424057359e+00 0 0 0
36 0 1 6.2393155475555933e+00 1.4000000000000000e+02 0.0000000000000000e+00 0 0 0
37 0 1 6.1220207257826935e+00 1.4400000000000000e+02 0.0000000000000000e+00 0 0 0
38 0 1 5.9839800436520800e+00 1.4800000000000000e+02 0.0000000000000000e+00 0 0 0
39 0 1 5.8085364636770791e+00 1.5200000000000000e+02 0.0000000000000000e+00 0 0 0
40 0 1 5.5889950333086933e+00 1.5600000000000000e+02 0.0000000000000000e+00 0 0 0
380 0 2 2.2618743601543244e+01 1.5322371113729835e+02 1.1545654228676881e+01 0 0 0
324 0 2 8.5984355810091060e+01 1.3906810020053206e+02 1.5878003517108970e+01 0 0 0
325 0 2 6.8492000954454767e+01 1.4506004152123819e+02 1.2058923725066206e+00 0 0 0
406 0 2 7.7060402872534652e+01 1.5419107868996966e+02 2.4472977115992911e+01 0 0 0
306 0 2 1.4601966885198826e+02 1.5257439536628053e+02 1.5893146053838144e+01 0 0 0
413 0 2 1.4732813748872286e+02 1.4400677296519595e+02 1.6091661302415496e+01 0 0 0
424 0 2 1.7547119696413688e+02 1.4440737624857920e+02 2.7386304935154646e+00 0 0 0
276 0 2 2.4645352607893457e+02 1.4441280865315946e+02 7.3037516825384232e+00 0 0 0
421 0 2 2.2931739186370623e+02 1.3740505331075053e+02 1.8336549689218661e+01 0 0 0
41 0 1 5.3189459698699615e+00 1.6000000000000000e+02 0.0000000000000000e+00 0 0 0
42 0 1 4.9992834674449647e+00 1.6400000000000000e+02 0.0000000000000000e+00 0 0 0
43 0 1 4.6333152974773411e+00 1.6800000000000000e+02 0.0000000000000000e+00 0 0 0
44 0 1 4.2300533435303693e+00 1.7200000000000000e+02 0.0000000000000000e+00 0 0 0
45 0 1 3.8084892662491572e+00 1.7600000000000000e+02 0.0000000000000000e+00 0 0 0
46 0 1 3.3863618893920888e+00 1.8000000000000000e+02 0.0000000000000000e+00 0 0 0
253 0 2 4.1421915889448449e+01 1.7814035396005042e+02 2.4645032838287312e-01 0 0 0
352 0 2 5.4927889283247239e+01 1.7303518353637085e+02 1.0116484789232018e+01 0 0 0
388 0 2 6.8791493339832627e+01 1.7862856256711694e+02 1.0512553276732822e+01 0 0 0
414 0 2 1.1157123889381590e+02 1.7781208836371641e+02 2.4388456449093511e+01 0 0 0
439 0 2 1.4161826071404769e+02 1.7810782099985880e+02 2.2907377231357330e+01 0 0 0
408 0 2 1.8225578134053191e+02 1.7291699031969392e+02 1.0792815154787533e+01 0 0 0
445 0 2 1.9028734098667621e+02 1.5933996306701562e+02 1.3379633665727280e+00 0 0 0
355 0 2 2.4925197719095831e+02 1.7798064843657457e+02 1.6037913675437640e+01 0 0 0
391 0 2 2.3925591504166644e+02 1.7416410528782947e+02 8.8058786274892658e+00 0 0 0
403 0 2 1.1442910745480522e+02 2.1000899291132063e+02 3.1057193028301555e+01 0 0 0
259 0 2 1.2055796017896289e+02 2.1763672782929461e+02 4.1024231347732353e+01 0 0 0
438 0 2 8.3548979406966353e+01 2.0769689288348746e+02 3.8083934638688312e+01 0 0 0
343 0 2 2.9881895068046589e+01 2.2501040865900478e+02 3.7496916594680826e+01 0 0 0
418 0 2 1.3221160980510135e+01 2.0805259943383399e+02 3.7001934222412267e+01 0 0 0
440 0 2 2.2331101504308685e+02 1.8822982916060360e+02 2.8936935113247920e+01 0 0 0
358 0 2 2.2025806839589873e+01 1.8773555298696064e+02 1.3571952592382186e+01 0 0 0
409 0 2 3.6412538046209391e+00 1.9855269426412539e+02 3.7566248577817456e+00 0 0 0
294 0 2 3.0355612295845344e+01 1.8677585627267877e+02 7.0908187455920588e+00 0 0 0
371 0 2 9.0687957168877105e+01 1.9249613731750105e+02 1.4128994762026236e+01 0 0 0
298 0 2 1.5970673326389246e+02 1.9106596624062675e+02 1.2284730310684409e+01 0 0 0
339 0 2 2.0123658385185368e+02 1.8326479810442066e+02 6.5730870499150305e+00 0 0 0
351 0 2 2.0064245732531066e+02 1.9778026649625053e+02 4.6469501241328892e+00 0 0 0
307 0 2 2.4330337030966922e+02 1.9974479461076893e+02 5.5381511596674802e+00 0 0 0
337 0 2 2.2122874540334041e+02 1.9152399394266493e+02 4.7188309718476752e+01 0 0 0
265 0 2 1.6946489278667835e+02 1.9645306570290268e+02 3.9333763434241412e+01 0 0 0
260 0 2 1.6702489748924268e+02 1.8745210170161542e+02 2.5373664952522919e+01 0 0 0
446 0 2 3.8567304629165356e+01 2.0068890238212836e+02 4.8919116821568046e+01 0 0 0
57 0 1 1.9503801293028065e+00 2.2400000000000000e+02 0.0000000000000000e+00 0 0 0
376 0 2 3.1428362257512457e+01 2.1648446201183111e+02 2.2717651642261842e+01 0 0 0
384 0 2 8.1347567067177764e+01 2.0855969805669025e+02 1.3142261939655182e+01 0 0 0
281 0 2 1.0139914327366238e+02 2.1540100044356706e+02 1.2230722751575859e+01 0 0 0
397 0 2 1.2597172433788504e+02 2.0677094683366406e+02 9.9651716695936265e+00 0 0 0
419 0 2 1.2859046791148859e+02 2.1999418838880686e+02 2.2116212533841008e+01 0 0 0
251 0 2 1.5845920152890457e+02 2.2380009629940619e+02 2.0410925205988310e+01 0 0 0
58 0 1 2.0734705588142242e+00 2.2800000000000000e+02 0.0000000000000000e+00 0 0 0
59 0 1 2.2033040717959098e+00 2.3200000000000000e+02 0.0000000000000000e+00 0 0 0
60 0 1 2.3290151478656576e+00 2.3600000000000000e+02 0.0000000000000000e+00 0 0 0
61 0 1 2.4433847557545083e+00 2.4000000000000000e+02 0.0000000000000000e+00 0 0 0
62 0 1 2.5384584128840757e+00 2.4400000000000000e+02 0.0000000000000000e+00 0 0 0
63 0 1 2.6073644785117596e+00 2.4800000000000000e+02 0.0000000000000000e+00 0 0 0
275 0 2 2.0303344829149239e+01 2.3831654351126241e+02 1.9307339689371801e+01 0 0 0
333 0 2 4.8933578677910186e+00 2.4266568396364605e+02 2.4107518849944473e+01 0 0 0
369 0 2 2.3694998130060267e+01 2.4183357192288784e+02 2.4842165398803616e+01 0 0 0
316 0 2 5.7252769850777817e+01 2.4730288202283108e+02 2.0976907886088316e+01 0 0 0
348 0 2 6.7783277979019687e+01 2.3355299338398174e+02 1.6257990229063662e+01 0 0 0
370 0 2 7.6589142939350168e+01 2.3372538165828462e+02 1.1124476539494692e+01 0 0 0
360 0 2 1.3620755594978462e+02 2.4039284802991565e+02 1.4129841939606630e+01 0 0 0
350 0 2 1.7607172400507690e+02 2.3746535332755437e+02 4.0096688102975806e+00 0 0 0
382 0 2 2.1754218648073365e+02 2.3152818169050298e+02 1.4707483614193034e+01 0 0 0
264 0 2 2.4097558122173680e+01 7.6593593729936327e+00 3.6542649095199373e+01 0 0 0
437 0 2 2.1806494249872162e+02 1.7488576014288039e+01 4.6524853606952753e+01 0 0 0
305 0 2 2.3769938025516430e+02 1.3483948546221455e+01 3.1236160817200393e+01 0 0 0
430 0 2 2.7386704472539343e+00 2.8834206996874048e+01 3.0825849823106942e+01 0 0 0
375 0 2 3.4094344840428953e+01 2.3653733089404987e+01 2.7414601681481393e+01 0 0 0
402 0 2 2.8086179880465465e+01 4.4425250983063712e+01 3.2759663617592153e+01 0 0 0
427 0 2 5.5872193563670010e+01 4.3957224601859792e+01 3.9453694172880475e+01 0 0 0
378 0 2 1.2655654136396782e+02 3.5790704207397397e+01 2.6718280686400032e+01 0 0 0
422 0 2 1.4827416611289334e+02 4.3909859398337950e+01 4.9650345393293698e+01 0 0 0
287 0 2 1.9224305739265077e+02 2.9065598281596603e+01 2.5275515939702984e+01 0 0 0
277 0 2 2.1419814658081074e+02 2.8249583685886851e+01 3.9537650435016332e+01 0 0 0
309 0 2 2.2699030499299536e+02 2.6056017273131765e+01 4.6174115476279574e+01 0 0 0
344 0 2 2.1354413601269206e+02 3.6293965315583151e+01 4.9633752950296625e+01 0 0 0
442 0 2 2.0812935345253410e+02 3.0043476740849890e+01 4.7035679173206759e+01 0 0 0
295 0 2 1.1079064715224814e+02 5.8406687834489475e+01 3.2060121713234167e+01 0 0 0
389 0 2 9.8592637152687018e+01 4.6452625210607714e+01 3.6463595734193731e+01 0 0 0
286 0 2 1.2750985386199775e+02 5.8113858596474799e+01 3.5981071547596279e+01 0 0 0
338 0 2 1.2126243492647187e+02 5.7743809212811200e+01 2.5010071985893916e+01 0 0 0
404 0 2 1.2762815092114180e+02 4.6332531630216415e+01 3.5542955452363451e+01 0 0 0
354 0 2 1.7986886910156761e+02 5.6082990046629213e+01 2.9340685684858208e+01 0 0 0
401 0 2 2.1985240383998138e+02 5.9351338566910165e+01 2.5897364702959248e+01 0 0 0
362 0 2 1.2916253420019640e+01 8.3471230270094821e+01 4.5048357474174516e+01 0 0 0
359 0 2 4.0761414002981695e+01 7.7085148113353711e+01 2.8504217056792331e+01 0 0 0
436 0 2 3.9036586898861728e+01 8.7916009169032804e+01 3.0218305196714727e+01 0 0 0
327 0 2 6.3192427187781981e+01 7.5123745051735895e+01 3.0239154226258002e+01 0 0 0
258 0 2 8.4909310603937755e+01 7.0783320381670876e+01 3.2763282737118786e+01 0 0 0
340 0 2 7.8780902120648364e+01 7.0621941737188934e+01 4.7148738846717748e+01 0 0 0
443 0 2 1.0549694164912074e+02 8.7098296772268739e+01 4.3053692576034777e+01 0 0 0
365 0 2 1.7981090405015780e+02 8.1864371002588584e+01 4.4724172025324854e+01 0 0 0
261 0 2 1.9200804652274027e+02 7.9237907696160448e+01 3.7575732468429827e+01 0 0 0
296 0 2 1.8891392796715439e+02 7.6387343963788524e+01 4.2104499969680091e+01 0 0 0
335 0 2 2.0837029125931218e+02 7.9485195260255225e+01 4.5383836955476475e+01 0 0 0
399 0 2 2.2586263726738403e+02 7.3344552923620000e+01 3.5095049364070896e+01 0 0 0
283 0 2 4.1060587876038895e+01 1.0530043258578536e+02 3.9218523464733046e+01 0 0 0
270 0 2 8.8064610999107643e+01 1.0191706200219554e+02 4.6003053545021942e+01 0 0 0
385 0 2 1.1620727792205628e+02 9.5720035999882981e+01 3.8332252501664797e+01 0 0 0
280 0 2 1.5827413935133913e+02 1.1346007795699875e+02 4.6176511163905502e+01 0 0 0
332 0 2 1.5024077945865727e+02 9.6780361652737653e+01 2.9376914878085682e+01 0 0 0
368 0 2 1.3715111330950219e+02 9.8761392803285915e+01 4.4136442241322456e+01 0 0 0
330 0 2 1.6648465682123074e+02 1.0762719442491755e+02 4.4512834979460031e+01 0 0 0
268 0 2 2.3633580246769628e+02 9.5832074571322693e+01 3.2483866011017867e+01 0 0 0
356 0 2 2.4347550107328013e+02 9.2746538618927133e+01 3.9553728415422945e+01 0 0 0
447 0 2 2.4734372703700498e+02 1.0602031094302437e+02 4.4168300970535867e+01 0 0 0
395 0 2 1.9701792402054089e+01 1.2802490132303205e+02 3.5725826809986415e+01 0 0 0
263 0 2 4.3858833165773575e+01 1.3540901715653436e+02 4.0967567493658315e+01 0 0 0
323 0 2 8.8660319377044374e+01 1.1398776998463448e+02 3.9622506587590330e+01 0 0 0
272 0 2 1.1751765483874718e+02 1.1922487482392457e+02 4.0623558285005181e+01 0 0 0
285 0 2 1.3280921714976859e+02 1.2451263616071671e+02 3.4193797658287828e+01 0 0 0
434 0 2 1.1876688996272483e+02 1.1511960351612400e+02 4.0758814774806993e+01 0 0 0
255 0 2 1.5845376493337272e+02 1.3242723519561218e+02 3.5227096632694405e+01 0 0 0
410 0 2 1.9464621329430781e+01 1.4189068374312049e+02 3.7836083531303373e+01 0 0 0
252 0 2 7.5394310092271454e+01 1.5216972080626044e+02 2.5824879540980273e+01 0 0 0
320 0 2 1.4851882688166518e+02 1.5592340014685104e+02 3.0229313406268748e+01 0 0 0
363 0 2 1.4554336999801146e+02 1.4741955657835098e+02 3.4024370617244564e+01 0 0 0
302 0 2 2.0266202101607900e+02 1.4058721723993645e+02 4.2468007580595099e+01 0 0 0
257 0 2 2.2931836276749073e+02 1.5372303321665296e+02 3.1150963614299410e+01 0 0 0
273 0 2 1.6313333071914190e+01 1.7818893966180687e+02 4.1075444799417369e+01 0 0 0
318 0 2 6.1979191406620284e+00 1.6842699710672116e+02 3.7627018633124891e+01 0 0 0
392 0 2 8.0418442413405717e+00 1.5927616421099574e+02 4.7724594710266494e+01 0 0 0
328 0 2 5.6831711464017495e+01 1.7057457574204287e+02 4.2344724825743924e+01 0 0 0
417 0 2 4.6478532276339152e+01 1.6469196843201851e+02 4.8895671846762149e+01 0 0 0
398 0 2 9.0151487891632826e+01 1.7605699467289122e+02 4.9495473364133140e+01 0 0 0
288 0 2 1.1192797176164015e+02 1.7342139788596955e+02 3.4671713474519414e+01 0 0 0
374 0 2 1.4322430647128462e+02 1.7091886288063549e+02 3.1666421742023164e+01 0 0 0
386 0 2 1.3751264481689438e+02 1.7502143754391997e+02 2.9265040033154673e+01 0 0 0
390 0 2 1.4691278950633148e+02 1.6325323291274404e+02 3.9854278224452528e+01 0 0 0
444 0 2 1.8130304114022434e+02 1.6021244375045060e+02 3.4527105691156869e+01 0 0 0
411 0 2 1.8796793333625791e+02 1.7705558248658460e+02 3.8658742601358675e+01 0 0 0
429 0 2 2.2479726943410805e+02 1.6770737905414188e+02 3.2895988148123017e+01 0 0 0
308 0 2 2.1669202959942261e+01 1.9429414774956840e+02 2.5087061349808732e+01 0 0 0
394 0 2 7.6866932249100381e+00 1.9025303106301138e+02 2.9134653801626833e+01 0 0 0
12 0 1 1.4618605252674091e+00 4.4000000000000000e+01 0.0000000000000000e+00 0 0 0
47 0 1 2.9830555995087282e+00 1.8400000000000000e+02 0.0000000000000000e+00 0 0 0
56 0 1 1.8408988421350529e+00 2.2000000000000000e+02 0.0000000000000000e+00 0 0 0
48 0 1 2.6229847976690217e+00 1.8800000000000000e+02 0.0000000000000000e+00 0 0 0
55 0 1 1.7530023348939348e+00 2.1600000000000000e+02 0.0000000000000000e+00 0 0 0
49 0 1 2.3126556882389102e+00 1.9200000000000000e+02 0.0000000000000000e+00 0 0 0
11 0 1 9.8717763219784449e-01 4.0000000000000000e+01 0.0000000000000000e+00 0 0 0
50 0 1 2.0613329840504102e+00 1.9600000000000000e+02 0.0000000000000000e+00 0 0 0
51 0 1 1.8746552951438487e+00 2.0000000000000000e+02 0.0000000000000000e+00 0 0 0
53 0 1 1.7018713959313929e+00 2.0800000000000000e+02 0.0000000000000000e+00 0 0 0
52 0 1 1.7556992047834530e+00 2.0400000000000000e+02 0.0000000000000000e+00 0 0 0
54 0 1 1.7032170498735155e+00 2.1200000000000000e+02 0.0000000000000000e+00 0 0 0
10 0 1 5.4821237325928351e-01 3.6000000000000000e+01 0.0000000000000000e+00 0 0 0
9 0 1 1.6059559164660450e-01 3.2000000000000000e+01 0.0000000000000000e+00 0 0 0
64 0 1 2.6403433217583832e+00 2.5200000000000000e+02 0.0000000000000000e+00 0 0 0
65 0 1 2.6322930912047173e+00 2.5600000000000000e+02 0.0000000000000000e+00 0 0 0
66 0 1 2.5792273127968364e+00 2.6000000000000000e+02 0.0000000000000000e+00 0 0 0
67 0 1 2.4757804468172107e+00 2.6400000000000000e+02 0.0000000000000000e+00 0 0 0
68 0 1 2.3247582882939852e+00 2.6800000000000000e+02 0.0000000000000000e+00 0 0 0
69 0 1 2.1209451974881190e+00 2.7200000000000000e+02 0.0000000000000000e+00 0 0 0
521 0 2 4.1367030721794357e+01 2.5568534119785079e+02 1.5176475613925827e+01 0 0 0
593 0 2 4.5055998510241508e+01 2.5616696162902144e+02 1.9906204948158098e+01 0 0 0
494 0 2 7.9743600021928359e+01 2.5068556854998951e+02 1.3617530983694612e+01 0 0 0
536 0 2 1.0532834106373058e+02 2.5342825811981606e+02 1.8436710987443437e+01 0 0 0
567 0 2 1.0931592253470603e+02 2.7271004080432937e+02 2.1882789918166953e+01 0 0 0
594 0 2 1.5846201971101669e+02 2.7116528305744998e+02 2.3745617328093211e+01 0 0 0
482 0 2 1.7946457452115817e+02 2.6110397710516304e+02 1.8727160323749835e+01 0 0 0
519 0 2 1.7047969399508077e+02 2.5221697532209424e+02 5.3521192191877021e-01 0 0 0
577 0 2 1.8059456729357808e+02 2.5289250316698687e+02 1.8215036377410886e+01 0 0 0
546 0 2 1.8862690180010483e+02 2.5233855436199275e+02 2.7041581006274367e+00 0 0 0
448 0 2 2.0570328422156314e+02 2.5509791181194495e+02 2.1530191167970276e+01 0 0 0
538 0 2 2.3955915274077989e+02 2.7068011428726840e+02 1.6034041306019780e+01 0 0 0
619 0 2 2.4110561387664899e+02 2.6205242483972216e+02 1.5755214060542738e+01 0 0 0
70 0 1 1.8662367132221322e+00 2.7600000000000000e+02 0.0000000000000000e+00 0 0 0
71 0 1 1.5713645764668267e+00 2.8000000000000000e+02 0.0000000000000000e+00 0 0 0
72 0 1 1.2422527572880171e+00 2.8400000000000000e+02 0.0000000000000000e+00 0 0 0
560 0 2 2.1077325903380907e+02 4.6616458122905556e+02 4.1405835836849100e+01 0 0 0
580 0 2 1.6781691516182244e+02 4.9889312474936861e+02 4.4837383131886540e+01 0 0 0
461 0 2 4.1249795836047177e+01 2.8531861644485900e+02 1.7499329437268585e+01 0 0 0
595 0 2 6.7608019834201798e+01 2.8798935342952115e+02 1.1853154498084056e+01 0 0 0
476 0 2 1.4144591621190585e+02 2.8151377350162426e+02 2.0099562089936605e+01 0 0 0
575 0 2 1.4299257525382217e+02 2.7621229098933389e+02 1.4998732886742211e+01 0 0 0
589 0 2 1.7179035077420545e+02 2.8042546207105062e+02 5.5370514074047330e+00 0 0 0
550 0 2 1.8648742706816989e+02 2.9418673473139609e+02 1.9822531528688284e+01 0 0 0
545 0 2 1.7293294527238837e+02 4.8401119303145038e+02 3.8806063979308156e+01 0 0 0
587 0 2 1.4526590897946895e+02 4.8413221793441670e+02 4.0509341187080992e+01 0 0 0
573 0 2 1.3521118421815856e+02 4.9437315459101143e+02 4.6480460556447724e+01 0 0 0
537 0 2 1.1890826472961729e+02 4.9120531067773948e+02 3.4382828038364103e+01 0 0 0
621 0 2 1.1117303562870856e+02 4.8520981170479666e+02 4.6065266125865875e+01 0 0 0
564 0 2 9.9213484255230739e+01 4.8102987766313828e+02 3.3457694218241471e+01 0 0 0
571 0 2 5.4917805853727177e+00 3.0035629835927688e+02 4.4153262183141546e+00 0 0 0
481 0 2 3.0184786315162100e+01 3.1570359892943111e+02 1.5193603474271300e+00 0 0 0
518 0 2 2.7387737774936362e+01 3.0570878335540590e+02 2.3760927153639928e+00 0 0 0
452 0 2 5.1662838110543241e+01 2.9732012390034276e+02 2.9661196530638820e+00 0 0 0
541 0 2 6.1718413169364638e+01 3.0137013751145923e+02 6.3950577547750704e+00 0 0 0
563 0 2 4.6189864187589784e+01 3.1304740082148805e+02 1.9383280337500981e+01 0 0 0
579 0 2 5.0354508240872299e+01 3.0822000434073618e+02 1.2680647737663541e+01 0 0 0
605 0 2 5.9398486306610742e+01 3.1035935520676867e+02 1.0484148008043014e+01 0 0 0
516 0 2 1.0426036319893801e+02 3.0392428455125741e+02 2.7725226491561732e+00 0 0 0
616 0 2 9.1170880985991502e+01 3.0899673155927877e+02 1.5403365839926231e+01 0 0 0
471 0 2 1.3585419307269817e+02 3.0142297283812565e+02 7.9522451888547496e-01 0 0 0
506 0 2 1.9606814123507039e+02 3.1724973782768927e+02 8.1718349867369211e-01 0 0 0
507 0 2 1.9856632882662413e+02 3.0428858907161680e+02 8.9158263331818510e+00 0 0 0
597 0 2 2.0993048148692142e+02 3.0160235068835431e+02 1.5354009585154249e+00 0 0 0
607 0 2 7.6723527664655592e+01 4.9232945986666226e+02 2.9061598949628696e+01 0 0 0
562 0 2 5.7564406216873046e+01 4.8497528698527037e+02 4.8982418071936081e+01 0 0 0
568 0 2 3.7394648435243703e+01 4.9185625114098946e+02 3.1400646330509634e+01 0 0 0
455 0 2 3.4598085114079566e+01 4.9001651233528577e+02 3.5376140957407721e+01 0 0 0
600 0 2 2.2665882773076129e+02 4.5491767090508608e+02 4.0064745089069355e+01 0 0 0
86 0 1 3.2639501862262055e+00 3.4000000000000000e+02 0.0000000000000000e+00 0 0 0
468 0 2 2.2509707148424216e+01 3.2064804356575388e+02 6.5834104812626775e+00 0 0 0
531 0 2 2.4235642060747203e+01 3.2843611497824833e+02 1.2892219709647923e+00 0 0 0
613 0 2 4.6191453023902817e+01 3.3975097273464826e+02 9.7299375616619077e+00 0 0 0
586 0 2 8.9863785118732494e+01 3.4063649053715005e+02 3.8748228940529859e+00 0 0 0
485 0 2 9.8967007407437549e+01 3.3849349680286525e+02 3.0100382878491834e+00 0 0 0
483 0 2 1.3294075202799439e+02 3.3521933450140961e+02 1.5677482595517058e+00 0 0 0
489 0 2 1.9505775682398013e+02 3.3571894063414959e+02 2.1411761907586719e+01 0 0 0
596 0 2 2.2111821231484330e+02 3.3379437557132650e+02 4.1035113642474226e+00 0 0 0
488 0 2 2.4331098247473639e+02 3.2768245289459941e+02 1.7949289976595569e+01 0 0 0
553 0 2 2.3753991640989665e+02 3.3337510113295872e+02 1.7662370818509892e+00 0 0 0
87 0 1 4.0043675916825459e+00 3.4400000000000000e+02 0.0000000000000000e+00 0 0 0
88 0 1 4.7366478729378736e+00 3.4800000000000000e+02 0.0000000000000000e+00 0 0 0
89 0 1 5.4499676261625600e+00 3.5200000000000000e+02 0.0000000000000000e+00 0 0 0
90 0 1 6.1303997275637609e+00 3.5600000000000000e+02 0.0000000000000000e+00 0 0 0
91 0 1 6.7683281678632641e+00 3.6000000000000000e+02 0.0000000000000000e+00 0 0 0
458 0 2 7.8560066911652711e+01 3.5904458414718721e+02 2.3116288088781893e+01 0 0 0
505 0 2 1.1658018227507370e+02 3.6312349716346876e+02 8.3084132095372376e-01 0 0 0
592 0 2 1.5102979873820667e+02 3.5782739303904930e+02 2.4974036507762054e-01 0 0 0
456 0 2 1.6471395509537030e+02 3.4744328788828261e+02 2.3966976918264745e+01 0 0 0
466 0 2 1.7958922552857047e+02 3.5611345868376708e+02 9.9450049036857688e+00 0 0 0
472 0 2 1.6905821867708966e+02 3.6148130584577160e+02 2.0815367494158153e+01 0 0 0
618 0 2 1.7494741323168736e+02 3.4117418496924176e+02 5.7263389023609177e+00 0 0 0
92 0 1 7.3606388453210005e+00 3.6400000000000000e+02 0.0000000000000000e+00 0 0 0
93 0 1 7.9045877492667094e+00 3.6800000000000000e+02 0.0000000000000000e+00 0 0 0
94 0 1 8.4038311231487857e+00 3.7200000000000000e+02 0.0000000000000000e+00 0 0 0
95 0 1 8.8611861110060026e+00 3.7600000000000000e+02 0.0000000000000000e+00 0 0 0
96 0 1 9.2794661694358087e+00 3.8000000000000000e+02 0.0000000000000000e+00 0 0 0
97 0 1 9.6648523121636156e+00 3.8400000000000000e+02 0.0000000000000000e+00 0 0 0
457 0 2 6.5352045495692664e+01 3.7182864610656571e+02 1.6202755652462482e+01 0 0 0
604 0 2 6.6898991384962102e+01 3.7134820705808153e+02 1.2465801258788352e+01 0 0 0
633 0 2 5.7736288317356397e+01 3.7379774980889528e+02 2.0939051905152876e+01 0 0 0
520 0 2 1.0021812985661352e+02 3.6610850010351675e+02 9.2780619902899772e+00 0 0 0
467 0 2 1.7328398962192423e+02 3.8401357568056022e+02 5.8083231587933017e+00 0 0 0
511 0 2 1.6614326935547558e+02 3.6992805747777595e+02 1.9043101449051452e+01 0 0 0
551 0 2 1.6263281887519770e+02 3.6978683544778585e+02 3.6716854682526018e-01 0 0 0
620 0 2 1.8357733785341370e+02 3.8431730232402555e+02 1.1045007994885095e+01 0 0 0
98 0 1 1.0022353283439744e+01 3.8800000000000000e+02 0.0000000000000000e+00 0 0 0
99 0 1 1.0352452434427237e+01 3.9200000000000000e+02 0.0000000000000000e+00 0 0 0
100 0 1 1.0653727214409454e+01 3.9600000000000000e+02 0.0000000000000000e+00 0 0 0
101 0 1 1.0918193949871199e+01 4.0000000000000000e+02 0.0000000000000000e+00 0 0 0
102 0 1 1.1141557324008552e+01 4.0400000000000000e+02 0.0000000000000000e+00 0 0 0
103 0 1 1.1317205263340385e+01 4.0800000000000000e+02 0.0000000000000000e+00 0 0 0
582 0 2 3.3559096061419273e+00 4.0277275042737500e+02 2.0080821644552437e+01 0 0 0
462 0 2 3.3997185078448233e+01 3.9068961347951068e+02 1.6016687506817600e+01 0 0 0
532 0 2 8.1120643802509008e+01 3.9466038876895811e+02 2.8577019939467787e+00 0 0 0
522 0 2 9.3675375494023498e+01 4.0203592805286684e+02 8.9213922661363110e-01 0 0 0
475 0 2 1.3841825869792061e+02 3.9567393595151322e+02 4.5920768541247012e+00 0 0 0
484 0 2 1.3841903029867402e+02 4.0864222981438144e+02 2.4978245154478702e+00 0 0 0
493 0 2 1.4924720169475640e+02 3.9771888377038709e+02 2.3063976444799440e+01 0 0 0
558 0 2 1.7739006279846188e+02 3.9478545374925500e+02 7.9560581864584510e+00 0 0 0