LAMMPS (7 Aug 2019)
Running on 16 partitions of processors
Step MaxReplicaForce MaxAtomForce GradV0 GradV1 GradVc EBF EBR RDT RD1 PE1 RD2 PE2 ... RDN PEN
0   0.43641492  0.072902953   0.12419766   0.12320055   0.32348201    14.001434    68.888432    830.77098            0    1611.2921  0.066666667    1610.0562   0.13333333    1611.7909          0.2    1615.9082   0.26666667     1620.133   0.33333333    1623.7257          0.4    1625.2936   0.46666667     1624.123   0.53333333    1619.9085          0.6    1612.1896   0.66666667    1602.2544   0.73333333    1590.8839          0.8    1579.3445   0.86666667    1569.0781   0.93333333    1561.3223            1    1556.4051 
1000   0.14727098  0.029044409  0.059498709  0.081810694  0.035913288    2.7268499    58.423173    1343.2697            0     1602.953  0.066468065    1604.9729    0.1327931    1605.6798   0.19904532    1604.2341   0.26528776    1604.5165   0.33154335    1599.1272   0.39759614    1577.3777   0.46350295    1566.9314   0.52945951    1560.9987   0.59573236    1554.0592   0.66237687    1553.0984   0.72925043      1550.65   0.79632127    1549.2049   0.86375536    1552.5145   0.93162354     1552.907            1    1547.2566 
2000   0.36307583   0.07301891  0.043353288  0.064408626  0.037455922    5.6242057    65.978369    1525.3877            0    1599.9835  0.066662748    1603.2233   0.13320975    1605.6077   0.19967875    1604.2964   0.26610637    1600.5409   0.33249719    1601.5754   0.39877115    1582.0133   0.46490761    1564.1528   0.53103217    1555.5984   0.59736321    1550.2479    0.6639308    1551.3419   0.73065809    1548.7497   0.79759921    1551.0009   0.86477546    1553.2504   0.93222823    1547.4702            1    1539.6293 
3000   0.40097046  0.087265786  0.022544812  0.057296149  0.029373043    6.5485519    70.675995    1610.0962            0    1598.9546  0.066142566    1602.5359   0.13230314    1605.5031   0.19852137     1604.283   0.26483206    1600.0992   0.33127225    1597.0493   0.39783878    1583.9314   0.46423311    1559.8326   0.53058807    1552.1358   0.59706097    1550.5886   0.66367337     1550.823   0.73043755    1549.1069   0.79742802    1552.9117    0.8646666    1550.9055   0.93217608    1542.2043            1    1534.8271 
4000   0.17529268   0.03851671   0.01573777  0.076684264  0.011748419    6.7949103    76.807438    1744.9485            0    1598.7939  0.065948327    1602.7488    0.1319384    1605.5889   0.19801398    1603.3375   0.26421424    1597.8581   0.33058842    1589.2528   0.39717459    1587.2945   0.46370787    1560.2292    0.5302205    1551.4125   0.59678782    1550.9097   0.66345399    1550.0499   0.73025979    1550.3743   0.79726862    1553.0208   0.86452874    1545.6027    0.9320812    1537.0205            1    1528.7814 
5000  0.081590926  0.019101216  0.013116713  0.046572778   0.01180313    6.7931739    84.227314    1894.4158            0    1598.7798  0.066023628     1603.136   0.13208097     1605.573   0.19820332      1601.96   0.26441612    1594.3714   0.33076333     1587.394   0.39727519    1585.5723   0.46380138    1557.5683   0.53037268    1550.6199   0.59701819     1551.537   0.66376876    1548.7504    0.7306763    1552.1502   0.79773261    1549.7756   0.86495698    1539.8247   0.93236603    1531.2557            1    1521.3456 
6000  0.018364313   0.00351729 0.0066647678 0.0094371975  0.015388914     6.686092    84.922513    1943.0138            0    1598.7463  0.066520971    1603.3246   0.13305018    1605.4324    0.1995953    1601.2751   0.26616229    1592.6902   0.33276346    1587.8132   0.39940716    1585.0764   0.46605478    1556.5353     0.532714    1550.4136   0.59939088    1551.4063    0.6660921    1548.8091   0.73283326    1552.3455   0.79959791     1548.395    0.8663729    1538.1324   0.93316939    1528.9062            1    1520.5099 
7000  0.015411002 0.0026628091 0.0039982049 0.0022405119  0.017301505    6.6939899    84.928821    1962.3542            0    1598.7073  0.066593766    1603.3772    0.1331924    1605.4013   0.19980074    1601.1366   0.26642217    1592.2258    0.3330619    1588.0992   0.39972488    1584.8857   0.46639115    1556.2378   0.53306597    1550.3113   0.59975217    1551.3898   0.66645181    1548.9714   0.73317594    1551.7733   0.79990185    1548.4763   0.86660485    1537.9092   0.93330167    1528.5805            1    1520.4724 
8000  0.011393218  0.004302115 0.0098150862 0.00030414169  0.017798229    6.6520465    84.887444    1974.3413            0    1598.6993  0.066633017    1603.4352    0.1332681    1605.3514   0.19990737    1601.0203   0.26655282    1591.9062   0.33320621    1588.3256   0.39986902    1584.7382   0.46653454    1555.9691   0.53320512    1550.2426   0.59988272    1551.3383   0.66656898    1549.1822   0.73327009    1551.4756   0.79996972    1548.8674   0.86665104     1537.991   0.93332611    1528.6775            1    1520.4639 
9000  0.014715559 0.0056770677  0.010284518 0.00095069528  0.018372778     6.658483    84.893847    1978.9753            0    1598.6992  0.066656587    1603.4311    0.1333142    1605.3577    0.1999732    1600.9628   0.26663444    1591.7593   0.33329855    1588.4098   0.39996586    1584.6597   0.46663386    1555.8323   0.53330348    1550.2216   0.59997548    1551.3568   0.66664981     1549.242   0.73332886    1551.3771   0.80000577    1548.9401   0.86667307    1538.1287   0.93333691    1528.7114            1    1520.4638 
10000 0.0038899353 0.0019987861 0.0026317683 0.0025265508  0.018173369    6.6401881    84.890162    1980.0906            0    1598.7138  0.066666933    1603.4116   0.13333409     1605.354   0.20000139     1600.948   0.26666891    1591.7285   0.33333667    1588.4367   0.40000494    1584.6386   0.46667306    1555.8229   0.53334129     1550.201   0.60000974    1551.3642   0.66667857    1549.2783    0.7333486    1551.3223   0.80001686    1548.9821   0.86667991    1538.1758   0.93334028    1528.7242            1    1520.4638 
11000 0.0059659086 0.0034466796 0.0050135173 0.0031124061  0.018757563    6.6477457    84.897727    1979.9109            0    1598.7065  0.066669575    1603.4186   0.13333909    1605.3542   0.20000833    1600.9559   0.26667733    1591.7298   0.33334601    1588.4209   0.40001428    1584.6332   0.46668241    1555.8099   0.53335038    1550.1865    0.6000181    1551.3497   0.66668543    1549.2721   0.73335237    1551.3112   0.80001752    1549.0886   0.86667945    1538.2247    0.9333399    1528.7244            1    1520.4565 
12000 0.0021037654 0.0013102368 0.0016462921 0.0013032593  0.018122212    6.6409552    84.890932    1979.7035            0    1598.7065  0.066668717    1603.4109   0.13333735    1605.3474   0.20000583    1600.9577    0.2666741     1591.741   0.33334211    1588.4255   0.40000975    1584.6432   0.46667732    1555.8202   0.53334474    1550.2091   0.60001199    1551.3508   0.66667897    1549.2853    0.7333455    1551.3002   0.80001089    1549.0963    0.8666746    1538.2183   0.93333744    1528.7065            1    1520.4565 
13000  0.001856158 0.0011781539 0.00096137906 0.00060118271  0.018069478    6.6415031     84.89148    1979.4567            0    1598.7138  0.066669562    1603.4177   0.13333894    1605.3553   0.20000806    1600.9596   0.26667681    1591.7307   0.33334505    1588.4297   0.40001261    1584.6315   0.46668003    1555.8092   0.53334719    1550.2099   0.60001396    1551.3518   0.66668029    1549.2616   0.73334584    1551.3094   0.80001045    1549.1126   0.86667414    1538.2178   0.93333727    1528.7093            1    1520.4638 
14000 0.0037396593 0.0023340776 0.0030010312   0.00230682  0.018257471    6.6421411    84.892119    1979.1957            0    1598.7138  0.066669702    1603.4172   0.13333923    1605.3559   0.20000839    1600.9618   0.26667719     1591.743   0.33334542    1588.4041   0.40001291    1584.6488   0.46668027    1555.8202   0.53334738    1550.2034   0.60001411    1551.3455   0.66668046    1549.2598   0.73334608     1551.311   0.80001074    1549.1333   0.86667438    1538.2453   0.93333728    1528.7262            1    1520.4638 
14935 0.00093391572 0.00084024038 0.00093391572 0.00083609939  0.018018343    6.6351935     84.88517     1979.085            0    1598.7211  0.066668327    1603.4096   0.13333653    1605.3563   0.20000456    1600.9558   0.26667233    1591.7459   0.33333979    1588.4167   0.40000687    1584.6499   0.46667391    1555.8219   0.53334085    1550.2111   0.60000764    1551.3459   0.66667425    1549.2517   0.73334052    1551.3192   0.80000617    1549.1518   0.86667111    1538.2778   0.93333568    1528.7055            1    1520.4712 
Climbing replica = 3
Step MaxReplicaForce MaxAtomForce GradV0 GradV1 GradVc EBF EBR RDT RD1 PE1 RD2 PE2 ... RDN PEN
14935  0.018018343 0.0027019971 0.00093391572 0.00083609939  0.018018343    6.6351935     84.88517     1979.085            0    1598.7211  0.066668327    1603.4096   0.13333653    1605.3563   0.20000456    1600.9558   0.26667233    1591.7459   0.33333979    1588.4167   0.40000687    1584.6499   0.46667391    1555.8219   0.53334085    1550.2111   0.60000764    1551.3459   0.66667425    1549.2517   0.73334052    1551.3192   0.80000617    1549.1518   0.86667111    1538.2778   0.93333568    1528.7055            1    1520.4712 
15935  0.035799637  0.011414097  0.035799637  0.016896258  0.021711525    6.9137663    85.164114    1961.0478            0    1598.7143  0.062557132    1603.0848   0.12508958     1605.628   0.19251483    1601.6882   0.25989226       1593.1    0.3272224     1587.817    0.3945066    1584.6891   0.46178893     1555.844    0.5290693    1550.2146   0.59634811    1551.3489   0.66362574    1549.2628     0.730902    1551.3146   0.79817728    1549.1539   0.86545189    1538.3001   0.93272605    1528.7091            1    1520.4639 
16935 0.0065983993 0.0031742297 0.0057456196 0.0027917791 0.0057812219    6.9086173     85.16593    1950.8189            0    1598.7211  0.060216856    1602.8869   0.12041907    1605.6298   0.18814876    1602.1277   0.25585312    1593.8245   0.32353128    1587.6413   0.39118355    1584.6721    0.4588345    1555.9706   0.52648388     1550.221   0.59413181    1551.3468   0.66177867    1549.2481   0.72942416    1551.3191   0.79706872     1549.143   0.86471276    1538.3168   0.93235641    1528.6993            1    1520.4638 
17935 0.0075060873 0.0048909037 0.0075060873 0.0035424571 0.0055933011     6.898683    85.126702    1944.3476            0    1598.6992  0.058855849    1602.7528   0.11770288    1605.5979   0.18560549    1602.3129   0.25349508     1594.221   0.32137191    1587.5353   0.38923636    1584.6989   0.45710063    1555.9381   0.52496463    1550.2399   0.59282816    1551.3359   0.66069114    1549.2362   0.72855332    1551.3283   0.79641514    1549.1463   0.86427687    1538.3271   0.93213846    1528.6932            1    1520.4712 
18935 0.0070056139 0.0036303197 0.0070056139 0.0037515863 0.0069557434    6.8744081    85.109744    1941.0466            0    1598.6992  0.058148267     1602.701   0.11629187    1605.5736   0.18428993     1602.421   0.25228081    1594.4242   0.32026429    1587.5343   0.38824022    1584.7176   0.45621564    1555.9458   0.52419048    1550.2275   0.59216461    1551.3529   0.66013809    1549.2477   0.72811087    1551.3369   0.79608331    1549.1548   0.86405561    1538.3283   0.93202779    1528.7009            1    1520.4638 
19935 0.0022688211 0.0017531447 0.0019403406 0.0021740417 0.0018445533    6.8751174    85.125094    1939.7564            0    1598.7138  0.057870849    1602.7024   0.11573863    1605.5889   0.18377155    1602.4674   0.25180014    1594.4897   0.31982413    1587.4978   0.38784347    1584.7225   0.45586232    1555.9549   0.52388068    1550.2289   0.59189863     1551.347   0.65991621    1549.2461   0.72793327    1551.3301   0.79595007    1549.1483   0.86396678    1538.3294   0.93198337    1528.7012            1    1520.4638 
20935 0.0015937955 0.0012737291 0.0015937955 0.00061937914 0.0012855659    6.8823413    85.132318    1939.0407            0    1598.7138  0.057705697    1602.6823   0.11540928    1605.5961   0.18346135    1602.4942   0.25151139    1594.5288    0.3195594    1587.5095   0.38760531    1584.7275   0.45565071    1555.9637   0.52369562    1550.2375   0.59174005    1551.3481   0.65978412     1549.245    0.7278277    1551.3307   0.79587097    1549.1495   0.86391408    1538.3306   0.93195707    1528.6942            1    1520.4638 
21454 0.00099183639 0.00087195196 0.00087058029 0.00090446172 0.00099183639    6.8748798    85.124856    1938.8635            0    1598.7211  0.057662707    1602.6935   0.11532352     1605.596   0.18338071    1602.4906   0.25143639    1594.5359   0.31949064    1587.5016   0.38754334    1584.7315   0.45559556    1555.9592   0.52364733    1550.2379   0.59169866    1551.3484   0.65974963    1549.2446   0.72780012    1551.3309   0.79585028    1549.1499   0.86390029    1538.3311   0.93195016    1528.7017            1    1520.4712 
