LAMMPS (12 Dec 2018)
# Strain energy of High Entropy Alloy
# Yin Zhang
# Mar 28, 2019

############## Initialization
units			metal
boundary		p p p
atom_style		atomic
##############

############## Atom definition
lattice			fcc 3.556398 origin 0 0 0 orient x 1 0 0 orient y 0 1 0 orient z 0 0 1
Lattice spacing in x,y,z = 3.5564 3.5564 3.5564
region			mybox block 0 15 0 15 0 15 units lattice

create_box		5 mybox
Created orthogonal box = (0 0 0) to (53.346 53.346 53.346)
  2 by 3 by 4 MPI processor grid
create_atoms	1 box
Created 13500 atoms
  Time spent = 0.000765324 secs

region			1 block 6 9 6 9 6 9 units lattice
group			inner region 1
172 atoms in group inner
group			outer subtract all inner
13328 atoms in group outer

############## Potential
pair_style      eam/alloy
pair_coeff      * * /home/yzhang951/HEA_MC/NiCoCr.lammps.eam Ni Co Cr Co Cr


############## Thermo
thermo			1000
thermo_style    custom step etotal pxx pyy pzz pxy pyz pxz
dump            1 all cfg 100000 *.cfg mass type xs ys zs
dump_modify     1 element Ni Co Cr Mn Fe


set             type 1 type/fraction 2 0.2	2457
  2620 settings made for type/fraction
set             type 1 type/fraction 3 0.25 1286
  2683 settings made for type/fraction
set             type 1 type/fraction 4 0.33 3286
  2658 settings made for type/fraction
set             type 1 type/fraction 5 0.50 5286
  2724 settings made for type/fraction


fix				1 all setforce 0 0 0
fix				2 outer atom/swap 1 10 2372 700.0 ke yes types 1 2
fix				3 outer atom/swap 1 10 2727 700.0 ke yes types 2 3
fix				4 outer atom/swap 1 10 2372 700.0 ke yes types 3 4
fix				5 outer atom/swap 1 10 2372 700.0 ke yes types 4 5

run				1000000
Neighbor list info ...
  update every 1 steps, delay 10 steps, check yes
  max neighbors/atom: 2000, page size: 100000
  master list distance cutoff = 7.88
  ghost atom cutoff = 7.88
  binsize = 3.94, bins = 14 14 14
  1 neighbor lists, perpetual/occasional/extra = 1 0 0
  (1) pair eam/alloy, perpetual
      attributes: half, newton on
      pair build: half/bin/atomonly/newton
      stencil: half/bin/3d/newton
      bin: standard
Per MPI rank memory allocation (min/avg/max) = 4.737 | 4.738 | 4.739 Mbytes
Step TotEng Pxx Pyy Pzz Pxy Pyz Pxz 
       0   -57816.678    20716.235    20225.856    20358.315    -19.94572    119.11463   -29.141636 
    1000   -58504.655    20532.968    20914.416    20586.393   -46.380988   -70.905187   -210.17007 
    2000   -58562.881    21948.302    21712.054    21697.231   -4.9622243     47.06749     19.48183 
    3000   -58590.613    22574.839    22183.452    22775.275   -124.44126    147.87746   -74.834053 
    4000   -58614.817    22939.165    23172.392    22820.806    -226.4496    85.731247    92.386337 
    5000   -58624.997    23295.059    23040.986    23123.427   -284.57974    27.314568    150.04346 
    6000   -58635.148    23505.389    23570.703    23440.549   -133.15995    65.833477    212.14978 
    7000   -58638.571    23810.942    23987.421    23559.248   -170.97447    28.279457    184.63828 
    8000   -58645.554    23380.243    23934.601    23713.241    -37.34489    110.49784    186.50577 
    9000   -58652.792    24023.505    24196.206    23887.711    61.197938    249.33959    12.387338 
   10000   -58654.813     24102.42    24049.758    23935.471     48.48103    51.966287    65.853452 
   11000   -58663.602    24407.429    24516.459    24279.621    38.539014    106.09917     104.0549 
   12000   -58661.739    24506.053    24437.188    24241.792    2.7659307   -36.459796   -11.219219 
   13000   -58665.609    24777.344    24886.808    24744.541     71.87967    82.496204   -208.99483 
   14000   -58671.382    25093.158    24901.908    24626.462   -49.165516    67.844542    9.4242162 
   15000   -58673.171    24831.293    25136.965    24799.642   -67.157986    58.586171   -141.08139 
   16000   -58679.857    25012.852    25064.925    25202.805    138.72438    137.26415   -77.466499 
   17000   -58683.161    25066.193    25072.715    25092.254   -107.26547    201.62961   -114.90246 
   18000   -58673.417     24950.55     24751.76    24923.704   -79.115599    89.709765   -52.542478 
   19000   -58679.847    25148.693    25205.673    25121.822    -90.61101   -14.518588    40.962378 
   20000   -58686.054    25714.586    25208.468    25344.044   -168.66287   -156.90976    3.3874518 
   21000   -58685.371      25655.8    25247.095    25540.434    83.403262    176.25279   -31.719922 
   22000   -58685.864    25137.606    24961.895    25574.962   -150.50192   0.61424741    -29.96531 
   23000   -58690.511    25322.717    25581.625    25676.343    1.7084075    11.145023    175.45392 
   24000   -58695.964    25615.911    25953.529    25698.116   -75.410073    154.52265    260.53348 
   25000   -58697.959    25750.351    26218.205    25536.035   -51.623099    170.36371    65.353706 
   26000   -58695.969    25924.432    26121.153    25596.903   -46.129188   -27.371765    69.771867 
   27000   -58691.115    25844.377    26385.193    25637.466    22.475899    52.480436    52.536749 
   28000   -58697.319    25868.473    26350.869    25650.602    13.031437    17.622749  -0.21763477 
   29000   -58695.772    25529.196     26299.47    25758.756   -128.55957    44.495818    55.579125 
   30000    -58696.27    25841.452    26398.169    25775.884    94.903992    25.289826   -187.58146 
   31000    -58697.83    25780.579    26280.149    25917.446    -188.6643    -108.5217   -1.0386424 
   32000   -58707.667    25661.707    26185.935    26257.419   -70.671551   -145.73086    25.236001 
   33000   -58703.483    25467.883    26157.062    25938.217   -117.19989   -79.030395     88.86489 
   34000   -58716.015    25895.302    26685.368     26310.57    -127.0537   -112.40237    96.979098 
   35000   -58704.134     25696.98    26225.524     26100.65    48.076847   -379.73923   -109.91544 
   36000   -58705.786    25538.067    26090.649    25730.937    46.143561   -325.69321   -70.338387 
   37000   -58705.371    25775.582    26472.929    26051.128     173.7269   -115.22855   -43.808544 
   38000   -58703.549    26045.476    26530.092    26079.552    273.12954   -81.651595    32.961825 
   39000   -58706.966    25953.996    26652.902    26194.733    255.46267   -100.86501   -34.854617 
   40000   -58699.533      25648.3    26620.973    26294.395    190.06755   -37.198718   -211.94158 
   41000   -58705.764    25891.262    26456.951    26409.257    302.13804    153.76715   -123.10365 
   42000   -58701.892    25754.089    26373.503    26394.981    295.13767   -28.515772   -9.3850821 
   43000   -58704.357    25751.844    26267.523    26568.373    272.42257    22.639059   -94.946091 
   44000   -58703.811    26022.905    26230.078    26550.597    335.05807   -173.59746   -13.238754 
   45000   -58706.818    25676.592    26188.732    26618.783    392.78798   -4.1776676   -227.95715 
   46000   -58702.898     25848.87    25982.181    26381.554    345.34143   -342.94947   -151.82726 
   47000   -58702.189    25862.388    25793.449    26019.477    336.14288   -126.98188   -115.65958 
   48000   -58702.413    26023.412    25934.176    26314.777    94.143454   -137.00436   -21.350792 
   49000   -58703.012    26094.255    26201.076    26134.775    140.54577   -13.932461   -110.91122 
   50000   -58710.666    26462.007    26489.893    26371.247   -6.6509089   -47.634621   -200.44424 
   51000   -58710.324    26438.267    26644.865    26520.247    148.57283   -268.49945   -127.47104 
   52000   -58710.522    26369.493    26547.004    26597.343    18.747969   -82.349766   -121.64825 
   53000   -58712.396    26297.169    26337.619    26393.876    297.51418    254.29006   -196.47904 
   54000   -58708.657    26328.421    26337.023    26630.618    343.79473    51.791043   -30.814029 
   55000   -58714.533    26796.982    26719.249    26760.425    417.91939    95.818126    -48.22483 
   56000   -58710.012    26369.932    26047.589    26384.534    130.73802    78.118093   -35.350609 
   57000   -58711.678    26552.875    26293.321    26541.191    263.82614    101.42928   -98.101689 
   58000   -58715.036    26524.211    26588.085    26751.181    274.40299    12.954287   -292.26414 
   59000   -58718.741    26553.186    26371.099    26755.789    74.961387   -83.274636   -59.145457 
   60000   -58719.702    27133.073     26523.15    26852.421    85.478572    50.645153   -93.132109 
   61000   -58717.611    27181.851    26515.948    26910.443    80.983507    33.366413   -86.661161 
   62000   -58714.194    26780.017    26288.571     26830.93    157.32353    112.68767   -172.45847 
   63000   -58723.291     27152.99    26831.118    27648.546    102.49108    332.41624    -218.6989 
   64000   -58726.906    26893.801    26871.979    27495.071    10.010109    108.29394   -145.15667 
   65000   -58722.395    26799.429    26491.391    27396.112    107.57179     155.9445   -263.22895 
   66000   -58720.049    26989.264     26797.91    27383.978   -10.871503    115.54115   -343.30437 
   67000   -58717.415    26931.169    26971.928    27182.676    39.560204    171.72488   -242.11358 
   68000   -58722.374    27599.996    27201.477    27289.197    102.82699   -1.1895674   -163.46168 
   69000    -58724.24    26911.232     26974.79    27148.467    74.374005    56.434429   -158.44498 
   70000   -58727.053    27320.105    27146.939    27508.929    30.668517     138.5143    -289.0182 
   71000   -58725.219      27203.9    27437.642    27539.062   -54.576184    105.42129   -302.33825 
   72000   -58728.084     27105.78    26956.077    27131.861    52.464959    65.247769   -423.20097 
   73000   -58724.599    27341.386    27077.789    27405.151   -27.728084     65.86277    -431.4415 
   74000   -58729.819    27737.039    27439.537    27558.431    20.405801    83.857558   -448.75669 
   75000   -58727.831    27832.814    27472.592    27554.409    -155.9963    26.113411   -372.48288 
   76000   -58732.204    27807.595    27789.213    28020.534   -105.31889    263.50129   -329.19466 
   77000   -58732.508    27641.836    27669.085    27964.335    83.051323    141.93173   -328.40988 
   78000   -58731.618    27651.132    27377.019     27582.94   -64.661213   -28.613317   -438.71274 
   79000   -58729.383    28221.163    27648.741    27824.236    33.229835    4.2395153   -116.69034 
   80000   -58731.954    27907.019    27197.058    27598.334    42.419532    -12.70098   -145.18645 
   81000   -58729.343    27957.234    27305.391     27522.05    84.347471    90.389381   -224.43301 
   82000   -58733.741    27816.222    27732.406    27688.156    18.593748    43.717047    -64.22731 
   83000   -58736.994    27867.376    28033.099    28025.865    110.46207    211.20365   -107.10359 
   84000   -58733.149    28134.385    28056.476    28271.752   -86.764178    127.12984   -1.6973334 
   85000     -58732.9    28093.114    28111.856    27984.407    180.83761     60.91019    29.856261 
   86000   -58739.277    27975.067    28257.862    28092.821    40.897429    9.3178656    -48.31216 
   87000   -58727.884    27843.453     28135.14    27831.912    59.045189    116.95847   -34.971157 
   88000   -58734.365    28192.404    28355.362    28128.505   -60.820848    223.91359   -238.27962 
   89000   -58735.959    27917.584    28037.315    28032.644   -131.56701    228.56046   -250.96954 
   90000   -58735.793    28056.635    28189.183    28345.866    11.521927    78.944432   -145.41034 
   91000   -58745.334    28358.815    28533.186    28503.408    9.1152253   -44.097387   -200.42237 
   92000   -58743.441    28335.238    28620.967    28427.376   -41.374618   -68.723962   -206.11586 
   93000   -58744.083    27895.558    28731.307    28518.948    163.56285    14.709745   -215.64105 
   94000   -58748.701     28124.14    28751.406     28579.06     173.5925   -104.35598   -237.81304 
   95000   -58743.665    28316.584    28765.357    28464.737    263.02579   -67.395227   -288.19159 
   96000   -58745.233    28317.633    28895.523    28299.786      116.178   -14.084238   -159.84618 
   97000   -58740.078    28124.355    28435.994    28417.936    97.313326    39.191363    18.569188 
   98000   -58740.451    28310.228    28494.365    28293.974    221.03583    93.741003   -158.65129 
   99000   -58741.583    28039.897    28586.763     28239.96    208.87624    169.83822   -74.525306 
  100000   -58745.759    28034.469     28584.92    28358.434    2.6297236    35.013419   -152.18309 
  101000   -58746.585    28132.543    28465.629    28446.067   -65.347525    159.68446   -151.45807 
  102000   -58747.647    28175.097    28742.968    28550.321    10.639651     227.8773   -93.313028 
  103000   -58750.945      28306.6    28566.349     28268.37   -71.150691    169.62887   -129.29359 
  104000   -58751.381    28285.039    28736.068    28334.217   -98.020343     92.38329   -41.080689 
  105000   -58746.459    28075.065    28290.047    28061.626      -18.704    336.51647    56.502353 
  106000   -58749.476    28481.797    28562.262    28337.493     23.21032    226.31987   -112.06017 
  107000   -58748.085      28516.9    28883.066    28614.322    144.48277    299.91812   -55.447957 
  108000   -58747.222    28698.218    28892.104    28374.816    24.078698    162.32947   -114.70374 
  109000    -58749.29     28737.73     29363.93    28532.749     109.1467    273.67217    48.275907 
  110000   -58748.928    28661.457    29042.288    28711.984    136.27994    325.25404    137.93685 
  111000   -58750.501    28457.862    28770.279    28655.152    77.362305    385.63642    152.73953 
  112000   -58745.129    28264.698    28590.757    28372.924    53.426406    458.93315   -44.930189 
  113000   -58748.792     28523.73    29005.506    28469.035    92.305005    388.84784   -105.80372 
  114000   -58747.215    28444.954    29162.485    28446.382    98.101598    374.41728   -142.62474 
  115000   -58742.567    28509.055    29173.512    28540.471    145.17062     232.1684    212.68638 
  116000   -58751.813    28555.264    29398.997    28668.076     65.07339    261.24591    114.98109 
  117000   -58761.906     29210.38    29434.709    29016.686    66.790104     182.2457   -14.554034 
  118000   -58754.584    28898.073     29037.02    28881.057     -4.76929    239.55101    172.26926 
  119000   -58754.596    28874.265    28993.188    28793.516    189.53401    283.29316    152.45835 
  120000   -58754.853    29122.598    29189.019     29051.68   -67.313711    250.29927    249.83436 
  121000   -58756.594    29135.549    29588.486    29308.586   -39.139189    91.122537    11.377351 
  122000   -58754.915    29242.347    29437.155     28987.88    -211.6786    137.16233    4.8505023 
  123000   -58762.405    29341.362    29325.771    29275.269   -61.580744       97.675    103.68329 
  124000   -58756.507    29282.244    29713.805    29504.222   -40.162946    245.61927    189.11582 
  125000   -58765.601    29310.714    29599.325    29563.599   -75.083374    179.68623    116.70155 
  126000   -58765.964    29616.309    29723.679    29587.728   -103.93128    168.50018    156.28776 
  127000   -58767.707    29521.761    30176.554    29802.345   -100.66702     40.69476    111.81551 
  128000   -58771.978    29452.363    30014.384    29734.665   -257.46002    45.906269    -34.27142 
  129000   -58766.808     29487.75     30004.54    29646.537   -69.773217    127.15368   -63.240325 
  130000   -58765.708    29742.176    29978.236    29961.075   -78.192778    21.697364    1.3429942 
  131000   -58761.679    29640.788    29664.435    29814.294   -86.718937    38.425954   -43.963012 
  132000   -58765.201    29487.118     29789.73    29735.091   -151.81476    45.603474    38.282893 
  133000   -58763.613    29467.798    30078.479    29696.636   -86.827495    14.040723   -4.7974986 
  134000   -58762.385     29537.64    30114.063    29722.741   -8.6981805   -75.003481   -36.220804 
  135000   -58766.838    29869.798    30293.625    29872.563   -36.436216   -40.591654   -42.453634 
  136000   -58763.209    29802.609    30187.699    29443.349   -4.1591819   -384.76184    -107.3145 
  137000   -58770.365    30049.305    30486.397    29845.525    5.1679869   -423.58237   -8.8784065 
  138000     -58768.6    29837.213    30459.274    29675.705   -72.955523   -359.37046   -12.664589 
  139000   -58763.386     29843.32    30483.057    29718.573   -65.296901   -131.32835     3.834373 
  140000   -58759.374    29327.187     29993.04    29538.482    54.415576   -139.83729    82.233765 
  141000   -58755.237    29358.303    29910.309    29427.665    2.7699099   -56.358032    142.03552 
  142000   -58759.855    29601.714    29899.772    29394.093    205.61768   -131.73735    33.269928 
  143000   -58761.872    29828.711     30267.86    29701.561    211.48961   -55.637664    141.33557 
  144000   -58765.742    29817.948    30240.074    29622.297     96.84654    21.383439    137.37571 
  145000   -58774.068    30061.504    30485.778    29730.342    112.73525    48.797345    101.08121 
  146000   -58777.281    29953.742     30518.91      29882.7    168.87446    171.98472    120.08878 
  147000    -58771.13    29622.889     30230.45    29533.551     110.8537    259.91085    155.91956 
  148000   -58771.558     29952.62    30383.506    29516.331    45.007108    178.64735    150.08377 
  149000   -58774.444    29610.448    30507.479    29711.119    100.31241    173.57144    167.05587 
  150000   -58778.334    29382.856      30448.9    29625.071   -118.98341    18.382389    40.210117 
  151000   -58776.235    29695.027    30591.316    29737.562     -5.44717      13.1473    98.283048 
  152000    -58775.75    29958.193    30865.833    29971.259    14.501101    58.698985    174.66382 
  153000   -58775.856    30068.019    30936.306    30101.536    -52.11504    13.463294    165.48093 
  154000   -58777.344    29996.694    30851.411     29835.97    -83.17323   -119.80901    2.7636687 
  155000   -58775.738      30148.2    31175.897    30135.694   -39.029331    -112.2452    143.02889 
  156000   -58780.462    30466.375    31282.274    30333.974    6.5648614   -125.41453   -154.23163 
  157000   -58779.415    30387.533    30914.399    29941.016   -89.029469   -160.85786   -33.648437 
  158000   -58783.491    30403.343     31170.47    30297.547   -4.2014048   -10.761121    90.981063 
  159000    -58779.05    30330.559    31088.248    30035.713   -104.51638   -64.528434    105.07281 
  160000   -58782.372    29995.301    30851.777    30252.794    2.2514821   -34.735489    76.590671 
  161000   -58782.756    29972.838     31049.83    30314.793    100.91263   -44.838911     37.12974 
  162000   -58784.168    30310.182    31360.862    30476.523   -113.63353   -63.659596   -53.442822 
  163000   -58786.982    30459.204    31373.464    30744.343   -156.40432   -88.845227     181.4761 
  164000   -58784.885    30608.791    31536.661    30688.278   -62.829294    74.527445    35.289359 
  165000    -58779.68    30555.727     31003.65    30459.563    -72.01495    70.990339    152.28665 
  166000   -58782.267    30504.574    31067.153    30527.185   -107.80902    64.324318    282.41878 
  167000   -58783.991    30194.978    31121.157    30543.997    5.5293692    147.35778   -90.461206 
  168000   -58780.355    30335.031    31152.249     30513.24   -1.3017777     58.09465    55.113119 
  169000   -58783.257    30574.461    31265.731    30648.321   -42.032296    40.465701    -38.87785 
  170000   -58778.084    30200.017    30595.482    30179.194    -24.68972    1.4627008    31.706086 
  171000   -58778.063    30159.546    30886.294    30529.335    53.661821    -18.33368    115.04367 
  172000   -58775.544    30048.095    30947.757    30476.998   -20.547039    31.395531     5.399435 
  173000   -58775.864    29998.146    30813.057    30195.842    20.040034   -255.32694    126.39261 
  174000   -58775.459    30056.874    31110.551    30408.441    6.0422705   -31.248931    99.451872 
  175000   -58776.176    30222.663    31096.125    30502.952   -68.374482   -53.716555    61.724594 
  176000   -58777.573    30522.478    31279.832    30858.527   -106.33247   -97.060679    25.817389 
  177000   -58784.899    30806.869    31548.319    30912.871    39.301041   -236.39842     137.0025 
  178000   -58783.541    30565.723    31335.156    30929.219   -73.416568   -83.537245    133.46933 
  179000   -58784.001     30228.41    31216.048    30872.005    -127.0013   -75.356991   -7.1983871 
  180000   -58786.691    30627.665    31477.879    31113.692   -116.26526   -134.87501    61.958738 
  181000   -58784.534    30386.433    31152.742    31017.352   -49.858726    -28.39344   -6.9859793 
  182000   -58789.176    30650.924    31498.142    31294.772   -77.421456   -126.70214   -169.17301 
  183000   -58788.655    30415.045    31353.324    31089.619    197.56187    16.467988    27.547244 
  184000    -58796.36    30779.978    31644.142    31434.033    100.51896    68.875099    14.057422 
  185000   -58790.001    30931.508     31388.04    31259.152    146.61022    61.279372    20.573418 
  186000   -58790.622    31154.182     31848.67    31625.707    -9.624387    137.51365   -42.545204 
  187000   -58789.066    31001.326    31622.212    31519.165   -124.33012    87.409924   -121.16591 
  188000   -58786.812    30687.123    31551.008    31224.961   -132.13448    151.44161   -138.58372 
  189000   -58789.487    30821.915    31624.311    31786.957   -84.787222    176.69863   -45.704262 
  190000    -58789.69    30743.776    31456.388    31536.614   -163.50385    218.52822   -45.685017 
  191000   -58787.909    30732.585    31472.581    31683.755    6.8460363    33.379123   -112.68292 
  192000   -58790.729     30935.83    31655.983    31297.328   -115.16623    4.9595069   -265.34069 
  193000   -58796.458    31245.482    31643.556    31320.523    184.59054    52.163104   -287.94347 
  194000    -58801.58    31344.982    31724.403    31296.115    116.58254    38.217823   -80.740401 
  195000   -58794.296    31314.449    31847.105    31282.673   -76.227821   -47.400921   -143.04049 
  196000   -58795.234    31237.688     31607.86    31392.503   -244.34562    42.102901   -38.043268 
  197000   -58786.108     31135.18    31167.715    31065.402   -169.75957    18.376241   -61.994072 
  198000   -58791.328    30972.417    31357.906    31103.658    1.2947598    3.8910883   -199.65663 
  199000   -58796.491    31212.999     31489.06    31521.782    -129.0262    38.805734   -176.18184 
  200000   -58789.292     31043.23    31793.932    31299.435   -174.37694   -24.184042   -72.557485 
  201000   -58794.919    31004.337    31819.184    31455.444   -127.62374   -64.672247   -11.645106 
  202000    -58794.37    31059.504    32034.039    31393.255   -272.43909   -46.721669   -148.79419 
  203000   -58792.482    31073.824    31922.907    31479.686   -200.51022    11.313959    59.403573 
  204000    -58791.99    31006.779    31907.013    31580.718   -90.361341   -21.160931    76.354338 
  205000   -58792.218    31120.425    32151.117    31449.317   -226.48401   -70.150004    108.81561 
  206000   -58792.858    31099.604    32258.994    31703.943   -80.669805    83.978664    113.15662 
  207000   -58797.278    31452.107    32747.922    31751.215   -78.729286     36.01689    236.48768 
  208000   -58796.626    31590.808    32496.674    31633.852   -238.58443    70.163724    57.652437 
  209000    -58794.34    31324.097    32585.941    31887.737   -186.94244    141.93149    228.95249 
  210000   -58798.331    31393.748    32614.392     31540.25   -264.12268    86.110089    118.07114 
  211000   -58800.236    31495.021    32935.306    31719.002   -338.62806    143.39932    10.469989 
  212000   -58797.191    31107.681    32783.564     31613.37   -190.67235    21.881923    143.42658 
  213000   -58800.893    31295.808    32792.873    31871.507   -174.98165    35.298159    68.134637 
  214000   -58797.865    31309.606     32975.69     31836.19   -94.779652    132.56002     25.19651 
  215000   -58799.011    31587.614    32979.684    31626.131   -312.89072   -2.4598032    201.74001 
  216000   -58799.895    31513.258    32998.938    31832.721    -329.4935  -0.32049034    144.58821 
  217000   -58794.775    31476.388    32896.509    31873.923   -363.17044  -0.55122465    24.377064 
  218000   -58793.562     31165.91    32650.215    31419.888   -247.77877    95.154108    -6.611331 
  219000   -58796.753    31670.277    33006.346    31892.529   -311.71178    131.94673     121.4174 
  220000   -58804.946    31605.429    33018.637    31924.253   -76.797811    49.036602    111.49629 
  221000   -58803.808    31337.639    32697.328    31703.581   -66.507461   -27.487415    156.45873 
  222000   -58806.915    31464.985    32795.717    31997.921   -128.94234    87.612957    59.719672 
  223000   -58803.813    31465.746    32821.212    32068.332    -94.06277    11.528254   -60.349794 
  224000   -58806.026    31534.633    32936.982    31947.828   -181.72872   -42.946406    62.884699 
  225000   -58804.494    31363.427    33013.939    31962.279   -33.561426    114.83258    106.79849 
  226000   -58798.682    31454.865    33066.711     31786.28   -70.427296    19.674328    63.234273 
  227000    -58805.65    31564.102    33235.028    32092.924   -83.924048    55.371989    118.95651 
  228000   -58801.522    31546.648    32972.339    31814.421   -220.57267    55.689929    174.59907 
  229000   -58806.091    31803.597    33037.117    31781.502   -177.14878   -12.123035    124.83566 
  230000   -58808.318    31735.306    33114.948    32013.532   -115.94822   -30.060329    92.806769 
  231000   -58807.136    31881.564    33060.543     31939.39   -81.801563    64.177105     28.27551 
  232000   -58805.379    31695.028    32727.992    31641.862   -221.49436    136.10155    167.97521 
  233000   -58812.985    31582.653    33092.816     31759.16   -264.18823      239.966    60.239895 
  234000   -58806.043    32091.298    33116.169     31972.04   -256.36436    148.53817    81.209731 
  235000   -58807.171    31835.356     33009.43    31795.985   -345.07599      104.779    40.468012 
  236000   -58805.467    32030.379    33033.299    31871.266   -295.61425    164.14574    96.572407 
  237000   -58808.325    31784.493    32937.498    31909.078   -211.69504    272.65183    59.991832 
  238000   -58813.184      32030.2    33268.391    32308.173   -94.372597    147.52862    201.52908 
  239000   -58809.075    32145.224    33422.869    32005.584   -154.32917    235.36088    24.279862 
  240000   -58812.451    32110.119    33242.842    31993.499   -170.08103    169.84889   -17.714084 
  241000   -58814.223    32525.678    33759.266    32142.595   -144.78396   -37.092026   -130.73929 
  242000   -58815.591    32689.393    33924.884    32499.957   -39.007271    242.44492   -12.113571 
  243000   -58816.525    32510.258    34049.279    32448.963   -74.294485    196.54459   -54.347652 
  244000   -58816.775    32757.997      34025.6    32517.286   -223.08728    110.23419   -147.68665 
  245000   -58813.583    32535.131    33556.909     32365.34   -241.52634    176.48851   -76.901285 
  246000   -58811.344    32124.574    33434.188    32169.081   -138.99462     77.01398   -95.834466 
  247000   -58811.758    32371.039    33637.996    32277.557   -255.58739    70.419742   -131.72191 
  248000   -58811.884    32389.399    33770.113    32367.963   -103.87333   -62.016369   -167.86493 
  249000   -58808.615    32444.665    33593.609    32196.692   -87.751845    -22.87602   -78.610077 
  250000   -58814.732    32344.306    33557.396    32215.415    57.789671    92.101663    44.588866 
  251000   -58819.099    32172.912    33682.454    32309.169   -10.612064    81.172552   -108.88586 
  252000   -58816.758    32254.306    33682.447    32333.578   -18.556018    168.49259   -74.206268 
  253000   -58818.165    32646.868    34093.597    32292.833    9.0715394    32.729875    104.25418 
  254000   -58815.338    32697.251    34059.249     32296.57   -89.776243    128.71922    9.1077484 
  255000   -58817.709     32481.57    33926.715    32410.082   -35.512909    123.34481    8.9352719 
  256000   -58814.126    32514.328    34027.945    32010.845   -106.39832    148.43978   -29.493789 
  257000   -58820.541    32771.671    34429.864    32568.877   -187.49994   -80.453983   -50.804162 
  258000   -58819.592    32837.481    34168.187    32130.681    -166.1626   -17.166421    12.441971 
  259000   -58823.585    33021.001    34156.097    32341.323   -115.77957    45.158808    53.360649 
  260000   -58817.917    33149.667    34377.758    32567.266   -220.68978    287.02271    167.56232 
  261000   -58818.664    32787.381    34287.142    32510.949   -213.99141    163.12777    109.77489 
  262000   -58819.414    33035.418    34565.667    32600.058   -156.44635    35.117654    144.45193 
  263000   -58827.621    33273.441    34991.773    32924.765   -22.751652    240.60513    56.010274 
  264000   -58825.683    33302.095    34861.821    32871.066   -16.123287    142.28265   -28.030566 
  265000   -58820.295    32837.038    34535.011    32408.575   -83.557362    268.92357    139.37349 
  266000   -58820.881    32859.797    34765.255    32594.821   -143.62197    172.00928    107.58051 
  267000   -58826.186    33197.136    34747.286    32591.898   -197.65544    167.31792     41.68329 
  268000   -58824.105    33121.986    34545.556    32425.581   -68.652819    295.27602   -18.728951 
  269000   -58826.012    32997.766    34507.661    32383.162   -83.937741    281.23177   -12.339988 
  270000   -58820.203    32959.412    34249.043     32290.54    -182.3447    370.43912   -88.512131 
  271000   -58826.971    33164.739    34691.123    32739.039   -133.69594     301.2424   -48.929915 
  272000   -58828.857    33239.016    34510.169    32800.806   -171.81148     353.5109    38.248418 
  273000    -58823.13    33191.887    34408.228    32820.109   -218.01441    301.45433   -43.018748 
  274000   -58821.405    33621.998    34772.924    32863.488   -268.47493    166.31734   -112.43435 
  275000   -58820.802     33179.52     34558.01    32950.173   -325.18208     166.6879   -43.176554 
  276000   -58819.872    33213.193    34412.974    32917.743   -20.754534    148.56704    25.186546 
  277000   -58817.987    33353.373      34735.6    32753.222   -179.55638    162.13267     22.74008 
  278000   -58819.278    33360.114     34643.58    32640.044   -16.226679    299.37447   -1.5190454 
  279000   -58817.855    33238.911    34497.772    32284.379    15.599411    404.18477    2.3297275 
  280000   -58817.414    33117.893    34475.338     32402.56   -160.80182    349.78856   -107.73219 
  281000   -58816.966    32887.915    34168.404    32370.382    24.019237    260.81177   -53.955925 
  282000   -58816.391    32904.377    34360.147    32348.966   -91.262265     143.2856    68.318672 
  283000   -58817.953     32864.88    34369.193    32087.014   -145.63067    223.48817    78.388707 
  284000   -58813.322    33127.766    34655.806    32367.645   -30.396316    100.05093    35.991737 
  285000   -58818.059    33127.358    34846.315    32530.034   -130.32554    171.91106    118.23964 
  286000   -58815.946    32930.533    34687.569    32506.025   -114.98427    279.54411    96.551237 
  287000   -58816.177    33133.636    34808.184    32642.537   -53.090793    148.40441   -42.671424 
  288000   -58820.353    33393.948    34982.461    32574.966   -143.87919      191.365   -79.536786 
  289000   -58824.538    33277.885    35032.119    32710.225   -138.35372    253.64431   -106.58844 
  290000   -58820.367    32992.401    34570.323    32486.743   -207.94991    301.16851   -255.73839 
  291000   -58826.898    33157.752    34886.045    32601.506   -231.31597    254.90883   -33.596623 
  292000    -58823.14      33003.7    34905.337    32798.126   -187.13635    346.35617    99.061685 
  293000   -58827.466    33357.827    35076.342    32547.891   -189.19336    376.12577   -9.1139586 
  294000   -58820.313    33393.772    35021.332     32740.13   -209.31643    421.25117   -35.187063 
  295000   -58828.052    33492.554    35447.897    33155.053   -228.67712    310.62546   -129.24499 
  296000   -58833.135    33567.309    35466.008    33239.401   -247.09967    225.70094   -108.82958 
  297000   -58836.496    33716.637    35360.309    33227.953   -299.88675    352.58644   -238.74987 
  298000   -58834.607    33719.955    35542.129    33234.146   -255.20372    245.60463    -195.6317 
  299000    -58829.78     33635.78    35253.775    33187.228   -248.01345    330.52549   -160.54967 
  300000   -58837.244     33576.61    35332.883    33361.194   -283.59753    422.06486   -10.288061 
  301000    -58832.53     33434.72    35277.072    33197.193   -240.42518    433.43899   -47.453672 
  302000    -58833.17      33527.5    35416.786    33075.913   -40.895584    300.26553   -124.43871 
  303000   -58838.515    33602.471    35446.424    33225.427   -1.3118588     311.2936   -160.24242 
  304000    -58830.37    33503.298     35148.93    33338.788   -105.78703    240.38356   -105.84671 
  305000   -58825.813    33370.093    35070.826    32988.327   -139.07835    218.11603   -141.35487 
  306000   -58827.285    33374.146    34684.291    32784.619    -92.36538      371.337   -71.950806 
  307000   -58825.989    33526.182    34712.545    32834.438   -270.97839    294.81115   -139.02231 
  308000   -58823.165    33346.416    35067.345    33076.125   -64.120939    266.95651   -32.866052 
  309000   -58827.668    33452.269     35359.78     33535.54   -161.26941    256.92451   -140.66609 
  310000   -58824.808    33615.344    35286.111    33493.921   -35.692799    293.14001   -25.668868 
  311000   -58833.273     33732.02    35629.667    33659.021   -199.15967    357.43705    40.566085 
  312000   -58831.383    33843.263    35629.024    33684.241     -92.3968    239.44267   -118.10937 
  313000   -58834.904    33739.913    35389.825    33523.018   -83.393762    164.97092   -53.139837 
  314000   -58830.092    33270.742    35241.256    33208.966   -103.40834    187.94425   -176.20064 
  315000   -58826.611    33323.635    35509.732    33572.268   -279.62587   -63.527655    -64.61397 
  316000   -58831.976    33489.387    35511.374    33605.576   -237.78376    16.028891    4.2629234 
  317000   -58829.551    33533.537    35621.971    33488.867   -131.87819    146.65644    24.182541 
  318000   -58829.206    33307.257    35319.737    33304.283   -71.497714    256.63201    81.631042 
  319000    -58829.18     33377.03    35601.284    33515.151   -132.77279    223.38696    159.58805 
  320000   -58830.243    33355.987    35311.378    33509.715    34.555863    335.71218    77.910911 
  321000   -58828.553    33680.234     35448.31    33538.389   -5.3100115    207.02795     -18.2235 
  322000   -58834.331    33392.413    35399.372    33297.314    32.466039    87.887512    -57.52205 
  323000   -58832.983    33542.718    35434.681    33345.937   -77.684555    214.90976   -34.917601 
  324000   -58830.029    33671.903    35189.072    33695.503    -149.2069    266.80443    47.191862 
  325000   -58832.005     33944.94    35699.272    34077.331   -213.82622    363.30669    42.041166 
  326000   -58833.656    33931.394    35676.658     33892.71   -218.79767    307.20621    35.235107 
  327000   -58832.797    34070.808    35626.083    33977.914   -236.08797    344.04398   -29.177207 
  328000   -58832.973    33572.925    35456.643    33646.132   -303.92079    274.92184    160.21736 
  329000   -58836.459    33820.485    35771.226    34017.138   -313.43915    218.33578   -84.752435 
  330000    -58832.29    33812.205    35601.579    33620.051   -227.85894    213.24805    62.484651 
  331000   -58837.768    34193.227    36017.843    33882.004   -113.42646     154.0714    125.53337 
  332000   -58835.251    34391.656    36014.715    34001.374   -2.4921744    163.85684    213.46565 
  333000   -58835.253    33858.904    35410.993    33695.333    82.535335    185.41118    292.35002 
  334000   -58839.682    34110.943    35733.963    33970.674   -118.27734    179.56383    286.05007 
  335000   -58842.699    34126.323    35948.974    33934.058    13.015152    265.79975    232.10772 
  336000   -58839.082    34373.571     36210.27    34333.406    32.401557    161.22849    320.09372 
  337000   -58838.699    34209.846    35994.415    34134.571   -11.396093     49.44191    291.33033 
  338000   -58843.853    34512.447     36206.13    34414.077   -25.660361    33.503492    201.39924 
  339000   -58843.995    34622.192    36252.424    34376.612   -168.75453    177.05464    5.3528037 
  340000    -58845.63    34603.556     36372.13    34420.076   -195.07066    239.83561   -83.745389 
  341000   -58848.719     34790.49    36373.627    34323.696   -199.85716    187.57192    21.659529 
  342000   -58846.711     34812.68    36503.361    34527.351   -164.04646    197.19905    104.85659 
  343000   -58850.142    35155.591    36999.538     34712.74   -123.11885    225.26687   -75.846963 
  344000   -58845.301    34725.109    36543.846    34559.814    -109.0272     260.6555   -260.47473 
  345000   -58848.006    34910.465    36576.748    34491.913   -132.48406    214.29843   -172.67624 
  346000   -58850.229    34710.407    36496.504    34119.933   -94.921459    303.76151   -134.41817 
  347000   -58849.845     34724.96    36762.009    34470.576   -134.03857     158.6262   -96.107738 
  348000   -58851.007     34813.32    36470.088    34367.306    5.7246263    182.62148   -34.509283 
  349000   -58840.296    34637.039    36286.912    34010.557   -64.579033     257.6188   -50.773025 
  350000   -58849.607     34682.73    36625.521    34273.387   -193.26669    203.87191   -39.452524 
  351000   -58846.936    34826.078    36274.023    34142.079   -77.704784    396.48164   -173.24701 
  352000   -58855.561    35273.253    36828.941    34376.995   -42.966842    307.55338    -87.02811 
  353000   -58849.636    34849.102    36767.082    34218.831   -185.98088    308.54383   -101.58503 
  354000   -58853.058    34784.291    36594.696    33973.603   -216.94994    186.04859   -59.446521 
  355000   -58854.882    35093.492    36986.396     34093.71   -294.39895    275.70922   -127.93591 
  356000   -58855.423    34838.379    36646.565    34176.509   -78.828597    308.91016   -152.49068 
  357000   -58854.258    35423.868    36799.082    34008.277   -75.243804    234.67262   -77.309832 
  358000   -58850.593    35459.721    37132.293     34332.63    -5.405061    150.84217    -216.5577 
  359000   -58853.489    35250.011    37022.252    34548.237   -6.7513019    178.55747   -128.45001 
  360000   -58853.506     35339.66    36978.768     34589.43    -13.97825    166.96506   -145.24747 
  361000   -58856.978    35152.841    37000.712    34491.877   -181.16085    151.53115   -145.29483 
  362000   -58853.479    34995.661     36885.38    34218.212   -1.6602843    174.90353    -164.9248 
  363000    -58853.73     34933.37    36775.006     34078.15    47.996246    243.25533   -146.15484 
  364000   -58853.367    34972.532    36824.376    34229.656   -27.679494    141.91103   -177.52917 
  365000   -58855.421    35162.045    37179.171    34439.309    110.15323    273.20231   -103.60926 
  366000   -58861.656    35371.734    37577.049    34799.579    167.78525    226.71178   -29.526623 
  367000   -58854.094    35285.633    37589.706    34629.103    87.989041    162.97147   -2.2587378 
  368000   -58855.462    35224.781    37368.654    34615.028    97.247493     8.845133   -138.52046 
  369000   -58859.116    35397.303    37391.752    34675.763   -94.711893    61.547375   -193.85358 
  370000   -58854.479    35286.878    37165.914    34412.836   -4.4061958    7.2292262   -135.27458 
  371000   -58853.151    35329.137    37106.128    34305.211    95.972702    230.14918    -108.2136 
  372000   -58855.123    35266.875    37155.066    34637.598   -68.630129    207.65683   -217.13267 
  373000   -58848.616    34728.026    36957.939    34477.171   -3.2551374     49.65772    -196.6112 
  374000   -58852.716    35124.389    37621.137     34876.37    -99.24384    336.42343   -214.15116 
  375000   -58843.412    34711.481    36723.026    34271.986   -90.574529    307.99524    -261.1424 
  376000     -58845.1    34519.731    36845.948    34368.163    45.323407    284.47085   -272.95379 
  377000   -58844.755    34469.821    36715.019    34050.722    23.382397    287.59084   -92.182838 
  378000   -58851.182    34668.924    37105.194    34420.371    88.395049    357.91159   -40.090237 
  379000   -58848.653    34351.831    36837.274    34272.303    6.8963082    342.91125   -68.244541 
  380000   -58853.807    34852.057    37121.496    34464.543   -50.888399    224.57405    12.244688 
  381000   -58847.921    34845.789    37144.965    34720.491   -99.102269    117.62812   -18.853423 
  382000   -58856.222    35148.764    37417.055     35117.35    -7.194485    79.968738    -9.110729 
  383000   -58860.187    35361.363    37812.517    35381.045    61.490023    182.17784   -25.221041 
  384000   -58862.079    35253.019    37883.624    35492.659    130.69438   -5.4030247   -114.52893 
  385000    -58868.44    35371.136    37838.812    35311.798   -26.110932    10.042027   -109.55942 
  386000   -58863.553    35293.632    37692.582    35181.233   -75.047152   -59.020746   -61.336593 
  387000   -58867.842    35499.385    37962.416    35588.646   -46.712109   -39.699887    48.557604 
  388000   -58871.726     35671.14    38072.257      35579.1   -162.75476    92.669935    181.77202 
  389000   -58868.885    35725.449    38239.245    35324.473   -82.353742    1.7280672    65.325531 
  390000   -58860.453    35395.399    37758.421    35231.617   -108.01225    11.747234    72.422614 
  391000   -58860.233    35357.671    37672.948    35275.879   -9.6120137   -23.724887    25.042826 
  392000   -58861.654    35394.736    37787.735    35223.544    11.910187    48.258508    79.405452 
  393000   -58861.891    35211.188    37557.379    35107.977    45.319615     -43.8849    62.857806 
  394000   -58859.831    35478.779    37781.737     34843.38    20.543616    34.208621   -2.4733644 
  395000   -58868.244    35550.526    37968.434    35286.234     139.6198     49.45796   -97.230809 
  396000   -58864.207    35388.312     37547.13    34778.933    43.076488    166.41407   -4.6311074 
  397000   -58860.215    35452.332    37537.574    34835.989   -20.284541    73.832551   -55.646416 
  398000   -58856.071    35304.283    37384.245    34799.856   -76.137016     37.11514   -60.325237 
  399000   -58864.705    35509.411    37895.555    35273.089   -59.490317   -56.975458   -46.837032 
  400000   -58860.229    35312.092    37713.422     34880.75    -53.74929   -63.123372   -129.57277 
  401000   -58856.596    35019.497     37349.08    34675.789   -63.152611     55.77343     93.45887 
  402000   -58857.301    35025.064    37385.453    34939.495   -130.39669   0.58256091   -6.9918899 
  403000   -58861.868    35200.099     37406.92    35107.301   -52.587873    -13.41447   -1.5800112 
  404000   -58867.582    35666.639    37973.945    35417.823   -105.74446    13.307848    65.339815 
  405000   -58861.075    35669.829    37684.988    35301.317     98.83853    23.592923   -72.982445 
  406000   -58860.491    35493.544    37580.334     35259.95   -43.401582    56.580967   -22.207516 
  407000   -58864.671    35471.784     37549.91    35159.141   -7.1755105    34.928382    -54.12658 
  408000   -58867.142    35647.146    38043.946    35243.248   -6.2870671   -88.937461   -110.63774 
  409000   -58862.023    35503.071    37568.918    34886.368    -102.6705    5.6989248   -35.758888 
  410000    -58863.47    35586.153    37890.615    35186.053    136.28172    68.106394   -69.218976 
  411000   -58861.986    35555.618    38075.617    35521.471   -44.363643    28.824307   -132.08241 
  412000   -58863.512    35453.269    38115.806    35344.339    17.456881   -40.188935   -115.14238 
  413000    -58867.28    35723.875    38159.826    35531.839    121.91608    34.886018   -164.35154 
  414000   -58868.025    35735.563    38180.326    35390.044    136.69966   -82.563301   -186.12347 
  415000   -58871.421     35783.72    38457.218    35728.442    166.00791    -61.59139   -31.189367 
  416000   -58867.494    35558.562    38215.215    35523.993    87.448083   -156.58648   -146.27166 
  417000   -58865.494    35488.332    37959.284    35237.189    39.324159   -57.201998   -106.28039 
  418000     -58870.5    35364.336    37792.998    35146.481    163.57951    65.837295   -14.642547 
  419000   -58870.506    35296.822    37719.203    35286.576    116.97915   -8.7293978   -7.3274483 
  420000   -58867.339    35641.552    37900.243    35213.944   -3.6176496    138.54922   -123.82663 
  421000   -58868.373    35640.344    38149.678    35300.104    25.369507    16.758797   -95.765565 
  422000   -58873.462    35692.974    37881.768    35267.569    99.222535    110.65503   -180.12606 
  423000   -58869.868    36074.372    38249.733    35584.436   -57.460063    80.918017   -197.35717 
  424000   -58867.661     35940.73    37844.137    35331.496   -65.591952   -56.887814   -107.97925 
  425000   -58869.327    36072.069    38089.078    35557.675   -70.941212   -50.941467   -25.173511 
  426000   -58862.919     35910.37    38203.044    35473.333    92.188728   -154.68129   -263.81109 
  427000   -58870.646     36234.38    38595.983    35736.059    32.078038   -31.573446   -232.55054 
  428000   -58866.395    35950.066    38098.432    35493.146    7.6210901   -105.78826    47.318008 
  429000   -58869.799    36085.804    38338.708    35850.608    126.42991   -148.23077   -105.26636 
  430000   -58871.144    36301.761    38507.994    35853.024    56.940928   -128.12606     -45.6241 
  431000   -58872.025    36303.521    38654.468    35902.066    54.862153   -52.269527    50.240922 
  432000   -58872.414    36060.962    38579.912    35887.245   -75.779178   -77.365907   -18.614942 
  433000   -58873.153      36086.4    38529.953     35541.18   -134.41255   -19.645346   -19.067236 
  434000   -58867.036    35845.415    38328.813    35489.826   -118.94767    -76.55269   -146.79101 
  435000   -58862.846    35508.161    37993.408    35467.225    17.908657   -100.10668   -24.080117 
  436000   -58864.176    35481.686    37720.163    35121.341    151.59394    20.136162   -159.47132 
  437000   -58864.997    35361.408     37561.41    35147.345     60.78822    24.928981   -151.19542 
  438000   -58867.969    35736.718    37941.109    35507.521    25.874465   -168.70833   -138.37999 
  439000   -58860.525    35635.855    38048.274    35455.084   -95.505827   -129.18435    -64.15914 
  440000   -58862.861    35799.216    38181.234    35495.462    -149.3524   -63.845539   -97.938395 
  441000   -58865.215    36003.031    38173.387    35488.053   -7.8009486    58.039764   -3.8555004 
  442000   -58871.229    36074.169    38106.378    35306.181    102.50657   -8.3155087   -25.954746 
  443000   -58867.658    35853.701    37926.841    35539.277    105.06142    55.707821   -91.844652 
  444000   -58867.407     35807.07    37921.449    35426.828    136.04481     40.80674   0.60336057 
  445000   -58867.126    35932.698    38051.992    35469.249    18.400982    57.695218     94.43814 
  446000   -58869.664    35955.961    38235.429    35528.541   -21.390864   -106.44433   -86.515644 
  447000   -58868.027    35840.287     38155.44    35461.263   -25.354585   -9.9957933   -227.62701 
  448000    -58871.15    36050.965    38218.326    35774.547    1.8910355    -147.1409   -194.60181 
  449000   -58871.318    36355.474    38505.563    35818.605    7.6142697   -100.00767   -146.08858 
  450000   -58868.322    36158.196    38447.256    35862.486   -26.412247    9.6279974   -241.48716 
  451000   -58869.343    35989.304    38072.251    35652.716   -45.578759   -128.68561    14.262846 
  452000   -58865.516    36123.631     38228.07    35402.278   -27.098652   -94.414627    59.662584 
  453000   -58872.144    36270.615    38478.436    35622.569   -6.8936782   -83.584067   -51.946274 
  454000   -58870.597    36248.226    38622.852    35706.633    55.426827   -21.710479   -213.06997 
  455000   -58872.522    36172.745    38520.357    35641.616   -164.88566   -68.041285   -138.71473 
  456000   -58874.257    36054.737    38119.155    35555.458   -72.884548    8.1152188    -73.95998 
  457000   -58877.443    36234.905     38203.07    35577.319   -129.79719    7.5231794   -97.058177 
  458000   -58872.716    36254.703    38393.063    35693.733   -65.919401   -90.433897   -66.608826 
  459000   -58877.414    36676.805    38638.544    36102.781   -165.88919   -53.390326   -36.256166 
  460000   -58871.069    36517.242     38628.64    35909.935   -130.89085   -109.55076   -74.535171 
  461000   -58870.976    36396.637    38370.296    35807.977   -272.81089   -48.626586   -46.413934 
  462000   -58870.519    36323.354    38218.245    35716.876   -238.24705   -136.30001   -10.101459 
  463000   -58869.014    36235.113    38061.121     35464.74   -290.42661    46.562765   -125.57232 
  464000   -58874.995    36402.092    38529.019    36016.367   -234.90409    47.242909   -71.557452 
  465000   -58869.124    36430.558    38353.815    35820.981   -240.46103   -20.026024   -56.456871 
  466000   -58870.292    36324.533    38315.475    35863.747   -177.08005    -50.65498   -22.271208 
  467000   -58869.984    35973.183    38157.395    35661.611   -52.863496    39.424883    137.72094 
  468000   -58874.119    36057.064    38331.598    35663.426   -49.031279   -88.139628    148.40074 
  469000     -58870.6    36222.356     38640.27    35902.649   -51.166246   -195.41627    82.217851 
  470000   -58867.073    35655.898    38048.168    35536.879   -136.76285    -46.47688    111.36553 
  471000   -58871.317    35932.189    38394.262    35834.112   -105.37878    2.2547436    11.604092 
  472000   -58872.926    35991.682    38170.505    35843.901   -101.12427   -19.068643    64.095449 
  473000   -58871.436    36244.896     38649.98    35807.559   -14.515335    56.292974    189.82385 
  474000    -58873.56     36454.38    38559.311    35981.378   -32.801131     87.41457    125.78352 
  475000   -58875.453    36157.294     38461.59    35840.226    66.830755    109.46372    84.319075 
  476000   -58870.581    36039.087     38410.24    35635.057    44.177156   -32.096797    82.475587 
  477000   -58872.452    36431.017    38438.879     35769.79   -55.835615    23.727123   -31.588418 
  478000   -58870.061    36213.566    38340.986    35798.489   -15.041845    18.094159   -11.240461 
  479000   -58872.359     36301.52    38329.375    36027.473   -45.053129    125.80381    30.069437 
  480000   -58876.468    36422.972    38520.672    35870.671   -142.67554    182.67738    156.00729 
  481000   -58871.023     36015.54    38277.382    35788.417   -197.04386    53.679096    92.125094 
  482000   -58871.786    35822.108    38284.352    35862.287   -87.662596     69.45032    31.037841 
  483000   -58872.554     36103.32    38176.053    35505.275   -53.744355     17.20423    9.4646932 
  484000   -58875.348    36225.376    38229.549    35735.681   -63.947524    92.274921    67.875455 
  485000   -58875.986    36298.094    38391.796    35772.475    -50.10903    88.102884    -5.417878 
  486000   -58875.122    36285.504    38376.286    35746.839    48.003964    84.687784   -65.819908 
  487000   -58875.041    36317.021    38252.166    35565.066   -79.693278    18.970715   -117.53795 
  488000   -58875.022     36101.81      38219.7    35701.781   -49.509647   -103.55782   -66.452442 
  489000   -58877.293    36196.462    38243.721    35629.618   -93.709697    -50.24445   -8.5807365 
  490000   -58876.667    36221.421    38327.203    35815.833   -88.610192     27.79622    53.524894 
  491000   -58879.047    36408.326    38466.879    36127.605   -71.792875   -49.255794   -24.340229 
  492000   -58873.616    36181.383    38464.045    35992.819   -140.14919     130.9619    41.792787 
  493000   -58874.928     36398.86    38577.286     36081.64   -91.203228    32.741238    18.066029 
  494000   -58880.555     36501.44    38622.084    36242.008   -168.14227    -43.12721   -3.6981291 
  495000   -58877.657    36377.051    38500.121    36194.524     3.114172   -101.13879   -60.504002 
  496000   -58876.251    36281.466     38705.32    36022.763   -110.59205   -119.65457   -178.51009 
  497000   -58876.227    36337.591    38788.426     36030.89    28.083616   -170.69642   -136.87834 
  498000   -58877.631    36375.309    38728.135    36094.552    42.340558   -21.704683   -6.7963793 
  499000   -58878.373    36573.505    39113.289    36460.897   -62.108291    2.1736335   -83.076273 
  500000   -58882.798    36545.733    38969.216    36300.933   -106.64056    63.832393   -76.270894 
  501000   -58878.809    36303.612    38787.037    36589.039   -214.96949    85.185363    -95.81962 
  502000   -58885.016    36398.635    38874.928    36358.665   -128.03469    24.469502   -180.66542 
  503000   -58881.543    36243.887    38631.296    35957.254   -15.175086    45.698626   -2.8994613 
  504000   -58883.841    36395.159    38929.509    36105.446    -44.88573   -40.696498   -135.84732 
  505000   -58880.311    36496.717    39193.088    36509.754   -51.450709     24.71473   -124.55958 
  506000   -58883.919     36420.32     39062.09    36202.603   -62.737546   -52.501642   -44.204578 
  507000    -58883.69    36266.209    38742.223     35983.38   -36.849202     52.16079   -136.43018 
  508000   -58879.806    36509.094    39053.129    36056.967   -37.418074   -30.134235   -74.233409 
  509000   -58880.551    36590.686    38851.678    36013.629    19.429306    34.835501   -88.683831 
  510000   -58878.076    36273.729    38325.848    35655.514   -12.579052    25.936583   -247.22278 
  511000   -58876.556    36252.852    38594.577    35835.604    18.115841    122.65974   -183.47489 
  512000   -58881.888    36552.652    38942.622    36232.195   -175.71277    95.685678   -246.15369 
  513000   -58876.017    36423.088    38784.528    36155.909    -190.2845    98.876087   -121.27118 
  514000   -58878.237    36579.579    38799.259    36278.322   -278.79868    134.67695   -96.328679 
  515000   -58880.641    36503.619    38791.274    36210.216   -64.293753    141.97653   -119.88716 
  516000   -58875.793    36440.846    38719.816    36088.962   -28.463964    156.39275   -100.45076 
  517000    -58871.95    35953.258    38381.104    36115.609   -127.74214    61.723673   -96.404098 
  518000   -58877.711    36536.961    38839.705     36301.29    12.416553    46.586895   -163.55809 
  519000   -58879.813    36683.547    38877.758    36046.009   -110.68315    53.269489   -155.77152 
  520000    -58876.49    36699.413    39050.128    36206.793   -96.442311    185.77288   -89.443632 
  521000   -58882.355    36636.774    38980.773     36248.98   -214.69024    34.127538     2.055874 
  522000   -58882.814    36742.131    39034.148      36321.5   -61.142945   -130.90991    25.332232 
  523000   -58881.594    36801.443    39094.323    36371.015   -131.46801   -84.072086   -95.864344 
  524000   -58880.214    36545.039    38959.376    36310.405   -57.139399    15.511759   -247.72472 
  525000   -58880.114    36370.526    38847.283    36145.776   -163.73483   -40.521456   -108.04075 
  526000   -58874.101    36156.221    38489.284    35988.698   -128.71652   -23.113401   -376.74227 
  527000   -58877.313    36096.449    38529.371    35916.635   -206.32056   -250.29409   -272.08597 
  528000    -58881.33    36282.156    38806.276    35941.232   -116.59519   -190.87279   -62.306689 
  529000   -58878.952    36287.767    38497.825    35662.732   -91.370648   -275.11108   -51.427119 
  530000   -58875.934    35967.062    38428.072    35567.513   -83.821375   -319.11941    -138.8043 
  531000   -58875.196    36039.539    38444.814    35657.693   -44.735049   -238.95104   -51.571919 
  532000   -58872.776    35976.961    38363.657    35569.516    14.116156   -238.05397   -67.266534 
  533000   -58877.616     36065.49    38685.448    35819.467   -1.4296242   -201.76752   -184.36732 
  534000   -58885.585    36312.752    39119.574    36376.468    73.068814   -233.37972   -135.52918 
  535000   -58877.816    36251.277    38987.527    36215.709   -114.64866   -41.029564   -119.19402 
  536000   -58875.537    36281.833    38903.586    36166.568   -101.46059    -131.4522   -95.429622 
  537000    -58875.01    36098.211    38732.933    36122.407   -157.74831   -89.546297    -66.80973 
  538000   -58876.705    35985.596    38707.784    36092.472   -97.259796   -86.792183   -140.44859 
  539000    -58871.09    35812.067    38448.228    35760.585   -59.503266   -88.826846   -158.69306 
  540000   -58877.898    36366.021    38854.121    36134.861   -186.83477   -11.249885   -261.08531 
  541000   -58884.543    36119.017    38752.049    36133.274   -39.609346   -16.318196   -340.21025 
  542000   -58886.148     36206.94    39101.037    36337.203    -77.30356   -98.628132   -212.91387 
  543000   -58882.683    36353.987    39227.602    36583.712   -147.13711   -113.52483    -194.8322 
  544000   -58883.374    36149.554    38823.528    36184.161   -64.730188   -192.05841    -195.7837 
  545000   -58874.275    35951.281     38589.05    35869.355   -79.303902   -9.5888458   -147.09746 
  546000   -58878.968    35791.798    38556.608    35811.633    -155.9187    115.70869   -74.966571 
  547000   -58879.115    35802.186    38575.763    35926.699   -123.29373    38.374298    -76.62068 
  548000   -58878.203    35941.596     38578.29    36050.866   -42.337321    34.350666   -67.287633 
  549000   -58878.081    35925.567    38760.648    35775.505    -179.8865    27.542156   -1.7425178 
  550000   -58877.044    35682.956    38557.353    35864.413   -180.45779   -78.441826    3.1757066 
  551000   -58872.819    35813.784    38493.531     35576.41    -142.5791    48.786318    33.042157 
  552000   -58871.544    35929.179    38322.741    35662.559   -117.00819    9.9524032    74.200878 
  553000   -58872.552    36073.393    38543.391    35907.195   -143.93477    5.4285401    66.582325 
  554000   -58876.077    36369.808    38876.932      36044.9   -161.42259    60.932008    28.583559 
  555000   -58875.156    36172.079    38684.081    35856.045   -58.032105     44.82566    155.07105 
  556000   -58878.205    36356.626    39068.267    36164.704   -192.71554    18.060678    186.44286 
  557000   -58873.065    35957.745    38474.937    35762.236   -91.787492     78.69795    64.239196 
  558000   -58874.071    36191.078     38782.31    35763.241   -3.8586368    133.48159    117.05283 
  559000   -58877.882    36655.254    38808.239    35763.785   -43.112452     163.9117    9.3208235 
  560000   -58881.576    36478.205    38993.311    35978.432   -104.09684    190.29179    17.501358 
  561000    -58881.07    36794.211     38905.23    36108.843   -167.46419    152.91804   -21.934319 
  562000   -58880.902    36327.479    38928.026    36108.535   -65.187201    137.72511   -21.555384 
  563000   -58882.115    36797.962    39714.598    36539.272     -110.616    61.755716   -86.562074 
  564000   -58875.884    36532.188    39270.935    36281.758   -183.23299    31.699632   -4.8963524 
  565000   -58877.287    36627.169    39272.382    36277.762   -52.379111   -81.875545   -158.45844 
  566000   -58876.813    36208.631     38696.08    35890.697    25.123713    2.6370157   -27.628909 
  567000   -58871.808    36267.643    38637.263    35986.256   -229.28104    8.7764618   -66.276466 
  568000   -58870.477    36514.118     38872.54     35956.99   -91.374957    19.939796   -58.145389 
  569000   -58878.674    36597.309    39059.469    36155.969   -49.647121   -72.472331   -101.12399 
  570000   -58883.912    37192.958    39559.783    36262.965    41.206771   -84.661883    4.7875486 
  571000   -58876.385    36713.157    38986.657    35751.352    54.902093   -53.291012   -63.429476 
  572000   -58878.275    36617.224    39120.535    35868.115    20.824293    -154.3092   -86.105367 
  573000   -58875.293    36440.425     38932.37    35855.927   -52.633828   -241.14648   -158.49235 
  574000   -58874.519    36638.298    39159.428    35891.929    54.445405   -145.70075   -137.83148 
  575000   -58875.647    36621.907    39096.527    35931.549   -50.788146    -132.8925   -62.887616 
  576000   -58871.437    36547.179     39078.37    35829.991    -207.0044   -131.26382   -157.64662 
  577000   -58876.445    36724.141    39190.223    35795.651   -5.4156355     31.21483     -35.5589 
  578000   -58885.516    36805.679    39414.734    36077.336   -18.647658   -153.17276   -5.0492682 
  579000   -58880.283    36584.101    39279.744    35720.958    125.57059   -13.144451    94.953321 
  580000    -58882.66    36809.092    39601.325    36061.512   -84.097745   -86.104405    51.963769 
  581000   -58883.346    36761.078    39504.973    36018.453   -120.68252   -5.8246529    35.370226 
  582000   -58885.336    36942.924    39719.973    36221.454   -173.73146   -80.838178    56.635896 
  583000   -58884.026    36928.843    39609.387    36465.757   -80.242727    37.463014     14.63657 
  584000   -58878.019    36629.538    39242.956    36165.709   -55.361002   -95.846242    43.707063 
  585000   -58885.012    36503.862    39180.254    36108.628   -97.030836   -44.319347    9.5545553 
  586000    -58885.39    36636.124    39100.089    36112.323   -33.085664    18.353457   -45.343571 
  587000   -58885.975    36582.585    39137.949    36221.106   -78.258299   -75.565405    -99.64464 
  588000    -58878.87    36708.133    39447.748    36177.566   -102.76533   -92.193283   -32.182684 
  589000   -58883.781    36844.571     39463.21    36243.472   -118.23632   -121.35584    44.249031 
  590000   -58886.813    36876.112    39402.964    36193.766   -175.77264    76.715849    13.761452 
  591000   -58882.139    36768.991    39514.629    36453.273   -73.088913   -71.431909   -132.77589 
  592000    -58885.96    36767.019    39417.689    36368.713   -85.278647   -77.622326    144.76252 
  593000   -58883.209    37026.213    39563.785    36474.028   -222.79508    80.202568    40.970222 
  594000    -58876.54    36589.945    39548.649    36272.012   -54.940851    81.710778    38.376814 
  595000   -58876.383    36662.997    39749.646    36409.511   -99.857971    98.616353    151.35309 
  596000   -58881.405     36655.27    39522.873    36394.895   -141.27757    123.30679    116.11353 
  597000   -58884.083    36909.161    39419.071    36395.136   -201.41695    8.4771434    151.39231 
  598000    -58885.31      36967.6    39741.249    36534.236   -78.324297    58.743772   -12.330698 
  599000   -58884.376    37053.166    39941.747    36802.841   -50.915893    80.638457    18.708837 
  600000   -58885.383    37124.054    39975.688    36514.595   -108.52225    88.653491    -25.56262 
  601000   -58881.431    37075.182    40005.061    36276.524    12.451209     45.32076    77.147821 
  602000   -58884.067      36813.8     39765.39    36225.521    25.384109      27.9538    142.89641 
  603000   -58882.692    36622.939    39986.502    36330.442   -143.87738    53.125891    230.77291 
  604000   -58888.352     36868.91    40241.728    36476.292   -50.555538   -153.95207    165.44796 
  605000   -58883.733    36725.257    39792.283    36241.068   -21.096801   -22.912104    48.211813 
  606000   -58887.583    36512.275    39671.316    36405.453   -73.411938   -110.18948    90.042952 
  607000   -58889.704    36613.027    39536.471    36375.287   -61.077063   -128.75648    108.25507 
  608000   -58880.536    36600.417     39547.17    35986.042   -163.80064   -115.40125    37.929543 
  609000   -58880.886    36552.269      39486.2    36247.292   -64.904173   -25.067318    146.17804 
  610000   -58885.064    36609.636    39731.131    36419.969   -59.185542    -23.17532   -9.1156223 
  611000   -58887.962    37101.712    40179.314    36308.645   -144.48871   -161.26116   -126.02364 
  612000   -58880.125    36798.654     39632.68    36078.365   -83.687466   -60.846654   -229.72511 
  613000   -58882.524    36706.614    39601.511     36106.51   -40.203022   -118.93952   -63.100635 
  614000   -58878.806    36418.736    39303.715    35943.784    49.757393    28.965269   -97.810522 
  615000   -58879.051    36684.873    39556.894    35984.065   -56.482951   -102.48806   -99.530273 
  616000   -58877.817    36522.492    39400.582    35762.278    59.038963   -67.651085   -61.647784 
  617000   -58875.194    36578.675    39246.343    35902.291    77.378225   -38.433415   -97.670586 
  618000   -58875.704    36254.839    39246.646    35662.973    44.622932    142.53958    55.175498 
  619000   -58880.546    36404.886    39434.841     36028.95   -52.915993   -98.516141    14.009428 
  620000   -58881.399    36851.855    39425.535    36136.592    12.156041    24.385645    -65.88883 
  621000   -58881.097    36626.343    39294.008    36205.329    11.682953      46.0558    31.455597 
  622000   -58884.512    36617.609    39442.687    36288.367    21.611041   -53.024086   -39.530353 
  623000   -58883.162    36596.393    39405.537    36110.339    119.00388    -131.1617    32.143666 
  624000   -58888.421    36700.426    39535.603    36218.892    115.89746   -118.87561   -42.604606 
  625000   -58883.283    36691.989    39366.971    35844.375    58.893132   -93.083992   -32.526793 
  626000   -58876.466     36248.16    39111.166    35852.235    44.305464   -162.53317    -61.32818 
  627000   -58883.159    36699.856    39473.176    36090.886    158.02829   -133.85826   -95.297953 
  628000   -58886.439     36756.64    39408.238    36024.592   -100.77286   -163.78925   -34.168401 
  629000   -58883.294    36667.414    39452.391    35881.759    69.049903   -176.14091    35.715929 
  630000   -58889.828    36866.596    39653.361    36141.399    47.179836   -151.73902    -19.82588 
  631000   -58884.762    36631.772    39349.388    35938.976   -6.3377373   -175.55027   -151.50192 
  632000   -58881.013    36762.523    39456.671    35847.789   -152.50398   -183.55522    19.368873 
  633000       -58880    36477.079    39214.076    35679.703   -50.127128   -50.836389   -157.78008 
  634000   -58881.623    36551.948    39090.971    35785.364    -131.0556   -158.65671   -183.05647 
  635000   -58877.333    36265.762    39069.959    35953.786    106.40419   -134.42227   -249.63021 
  636000   -58879.725    36526.424    39218.385    35788.611     30.90445    -152.4484   -104.31899 
  637000   -58877.912    36479.754    39385.576    35945.238      87.4268   -94.742997   -113.16494 
  638000   -58879.526    36507.062    39098.449    35586.509    35.059863    -126.0646   -182.56029 
  639000   -58882.834    36470.505     39252.27    35928.809   -11.811924    -108.7864   -252.83264 
  640000   -58880.849     36330.81    38924.971    35547.748     46.06951   -70.620759   -330.06614 
  641000   -58883.206    36502.782    39128.422      35619.9   -57.293715   -51.495825   -348.62018 
  642000   -58878.361    36516.477    39244.221    35828.028   -41.828253   -244.36315   -251.60818 
  643000   -58874.562    36194.715    38818.377    35616.187   -20.515753   -110.27693   -270.68441 
  644000    -58873.67    36049.555    38607.253    35445.081   -5.9676917   -71.470269   -229.47177 
  645000   -58881.816    36373.089    39238.203    35771.125    14.910171   -122.70916   -180.89315 
  646000   -58880.153    36659.353    39124.846    35810.637   -46.823452   -78.221528   -220.10791 
  647000   -58878.344    36575.665    39120.629    35567.931   -14.513508   -117.56088   -192.28586 
  648000   -58876.728    36143.113    38821.044    35587.186   -49.422568   -224.17226   -156.95647 
  649000   -58877.157     36486.79    38948.586    35512.003   -125.41245   -249.97831   -119.25435 
  650000   -58875.018    36078.509    38667.572    35406.369   -46.656935   -124.27955   -176.56076 
  651000   -58872.318    36195.522    38679.626    35450.641   -215.31268   -149.45727   -120.38937 
  652000   -58880.023    36235.426    38847.931    35777.212   -163.91904   -223.64939   -36.086007 
  653000   -58877.936    36197.971     38723.58    35567.954   -158.21762   -202.43715   -141.85716 
  654000    -58880.18    36647.934     38777.48    35614.887   -242.79955   -250.62163   -111.36216 
  655000   -58874.852    36433.762     38481.23    35272.499   -297.83972   -202.03221   -69.566094 
  656000   -58872.945    36452.004     38541.42      35499.3   -155.15281   -143.33262   -95.412912 
  657000   -58880.989    36333.477    38503.782    35433.042    -171.5545   -69.310387   -57.123585 
  658000   -58884.104     36470.21    39034.625    35528.228   -148.58721   -179.41473    44.983234 
  659000   -58884.399    36222.302    38529.633    35457.621   -359.84309   -139.07061    28.488521 
  660000   -58881.307    36225.542    38768.666    35533.029   -318.05387   -203.92478    27.809819 
  661000   -58877.931    36344.298    38939.745    35700.988   -360.11302   -144.62416   -101.22509 
  662000   -58884.838    36386.414    38840.291    35676.432    -177.1992   -298.76922    41.948902 
  663000   -58881.102    36516.946    39003.716    35664.144   -210.22683    -222.3904    3.6649887 
  664000   -58884.361    36282.095    38910.693    35809.481   -156.98055   -279.05312    25.714106 
  665000   -58878.787     36398.26      38877.2    35581.085   -123.05568   -317.22672   -68.005118 
  666000   -58873.406    36304.954     38739.15    35640.845    -4.191491   -174.07478    81.157516 
  667000   -58875.845    36518.023    38931.152      35623.8    45.045582   -227.36744   -70.795971 
  668000    -58876.81    36363.508    38795.371    35561.523     -15.0434   -213.71231   -10.651541 
  669000   -58876.989    36358.927    38815.551     35837.41   -171.62822   -93.334645   -79.369677 
  670000   -58876.411    36451.722    39021.601    35799.007   -18.538178   -18.307679   -63.571878 
  671000   -58879.061    36591.566    39225.262    35916.354   -86.092447   -41.041085   -28.379346 
  672000   -58873.431    36153.164    38767.876    35725.331   -82.312232   -1.0886176   -75.973674 
  673000   -58879.652    36308.147    39026.371    35739.589   -63.773329    93.069577   -156.97401 
  674000   -58882.153    36518.748    39150.061    35922.619   -106.99961    151.69086    -243.3645 
  675000   -58882.803     36464.69    39066.164    35658.797   -165.31707    134.08911   -264.35325 
  676000   -58879.439    36391.964    38939.958    35512.862   -120.30139    32.356958   -258.40266 
  677000   -58883.277    36396.419    39057.788    35677.277   -51.252075    89.301852   -180.56335 
  678000   -58884.117    36436.162    39159.582    35747.894    -65.11563    78.428386    -159.2844 
  679000   -58882.279     36473.13    39159.442    35700.115   -37.043294     52.53598   -91.919892 
  680000   -58882.148    36248.032    38961.177    35468.188   -53.734733    69.331417   -116.30388 
  681000   -58879.853    36309.231     39049.68    35494.596    57.061397    2.2982178   -135.25669 
  682000    -58879.05    36458.762    38999.767    35566.561    49.062116    32.301464   -222.71812 
  683000   -58880.278     36564.73    39118.852    35685.075   -7.5582095    5.8439793   -72.166985 
  684000   -58873.704    36130.353    38655.986    35451.432   -129.04098  -0.88590544   -32.583094 
  685000   -58880.512    36281.399    38830.438    35617.507   -214.94279    101.09936   -78.702092 
  686000   -58881.504    36375.263    38871.975    35705.688   -81.499712     72.35082   -91.872143 
  687000   -58880.584    36577.559    39225.368    35841.732   -149.30549    48.304966   -99.182411 
  688000   -58881.455    36516.289    39288.487    35800.707   -20.624384    88.074788   -0.4552303 
  689000   -58880.101    36498.433    39205.842    35972.133    -142.1161   -3.1679291    127.17003 
  690000   -58882.103    36381.842     39031.39     35859.42   -120.24105   -60.083727     98.54214 
  691000   -58876.796    36361.476    38894.649    35843.609   -140.51673    28.523047    101.19215 
  692000   -58873.749     36591.44    39055.182    35806.773   -75.024098   -49.063401    99.744771 
  693000   -58878.086    36548.892    38765.303    35975.858   -18.943034   -13.353059    112.27255 
  694000   -58873.411    36123.476    38623.846    35565.928     1.262562    72.655018    56.187922 
  695000   -58880.767    36112.667    38909.202    35528.704   -53.483264    96.547906    178.49121 
  696000   -58880.102    36422.058     39033.13     35825.89    88.830639   -11.817201    6.3469292 
  697000   -58871.084    36223.112    38732.232     35445.55   -69.286356   -12.780569    91.224003 
  698000   -58869.064    36485.497    38816.022    35640.312   -25.994494    83.561459     65.15616 
  699000   -58868.593    36180.293    38643.941    35669.095   -67.070409    148.50014    92.465944 
  700000   -58869.621    36058.645    38756.452    35583.679    -100.4639    34.065843    171.43866 
  701000   -58876.283    36425.112    39096.558    35837.237   -51.538436    161.30023    101.74214 
  702000   -58868.289    35978.277    38427.381     35148.17   -19.040915    130.58141    57.301573 
  703000   -58878.949    36122.188    38957.003    35619.347   -26.832167   -49.225047   -82.911762 
  704000   -58879.054    36330.353    39164.512    35729.822   -43.391109    2.4677874    32.401929 
  705000   -58877.602     36326.94    38749.785    35254.997  -0.12291718   -16.513717    13.468755 
  706000   -58870.582     36264.66    38881.741    35391.297    -35.09756    83.065912    98.039444 
  707000   -58875.036     36272.25    39089.348    35441.984   -1.6057277    81.936036    70.915122 
  708000   -58866.903    36079.542    38636.386    35325.046    7.8488828    2.5746409     33.94104 
  709000   -58873.731    36137.711    38729.927    35387.122    11.119293    1.5024282    46.119861 
  710000   -58870.075    36112.302    38685.064    35203.268    40.169515    122.07139    28.969045 
  711000   -58871.615    35865.502    38311.593    35256.593   -38.169484   -85.425788   -16.144569 
  712000    -58869.46    35956.455    38510.689    35324.473   -41.476633   -209.18041    84.238731 
  713000   -58867.114    35879.123    38566.619    35138.178   -74.597281   -141.12571   -10.662166 
  714000   -58857.716    35739.807    38176.205    35142.345   -44.174237   -113.28118    15.688875 
  715000   -58864.175    36069.665    38265.181    35126.199   -161.69664   0.92259382   -38.249885 
  716000   -58864.745    36092.896    38351.644    35330.096    26.796664    55.997797   -18.246444 
  717000   -58872.759    36375.819    38767.402    35635.546   -74.320375   -113.83392    -60.32828 
  718000   -58876.046    36268.063    38675.808    35539.934   -137.40731   -52.676649   -10.142776 
  719000   -58880.903    36484.697    38879.998    35720.783   -61.941874    18.947508   -64.986161 
  720000   -58876.748    36463.122    38673.125     35614.94   -56.400028    76.223108    48.723978 
  721000   -58878.188    36478.855    38929.725    35706.437   -20.845934    106.40673   -123.13441 
  722000   -58881.513    36512.501    38950.025    35679.198   -58.805013    10.949133   -44.367902 
  723000   -58877.769     36654.78     39107.74    35765.931       92.976    45.044906    14.120674 
  724000   -58883.379    36637.702    39231.854     35794.31    91.196631    50.244083    6.3128061 
  725000   -58889.521    37099.035    39667.821    35996.797    68.578211     41.39888     1.531617 
  726000   -58886.823    36750.967    39314.481    35997.749    13.367573   -64.914397    41.478362 
  727000   -58889.264    37128.931    39522.277      36173.4    36.614886   -32.834474    9.7472169 
  728000   -58879.883    36880.024    39257.175    35887.575   -23.147178    71.860457    137.66193 
  729000   -58877.982    36632.453    39091.096    35844.876    51.505674   -72.858056    136.22313 
  730000   -58877.537    36585.506    39231.388    36034.405    19.997674    19.858672    25.712409 
  731000     -58880.9     36620.44    39483.299    35942.894    125.48178    81.263278      108.637 
  732000   -58883.219      36816.9    39377.206    35776.438    9.1356964     49.56184    134.83731 
  733000   -58888.206    36771.101    39444.775     35907.95    109.60333    101.63803     51.46836 
  734000   -58888.955    37046.277    39764.788    36122.582    44.946106    215.82654    99.229044 
  735000   -58888.297    36804.359    39568.999    36035.785    108.60083    1.3531214    128.63805 
  736000   -58883.965    36974.897    39535.471    35916.072    61.665347    66.511014    6.7176208 
  737000   -58889.931    37023.402    39697.113    36078.472    82.227946    97.561081   -14.129771 
  738000   -58885.906    36704.576    39454.472    36043.039    44.616302    137.30302    39.474311 
  739000   -58888.619    36999.093    39564.471    35969.539    71.673299    24.867464   -87.584434 
  740000   -58880.775     36660.64     39234.76     35934.62    41.964082    39.342663   -163.12465 
  741000   -58881.173    37068.076     39612.56    36075.576    16.966943    68.630175   -189.70521 
  742000   -58881.813    36647.721    39437.137    36137.292    17.115729      26.9904   -76.570843 
  743000   -58876.501    36792.327    39518.983    36318.453    30.275813   -48.229373    3.7402377 
  744000   -58873.352    36368.682    38945.988    35694.242    6.8271342    11.422062   -39.514853 
  745000   -58873.949     36674.01    39260.272    35723.876  -0.10233828    60.710581   -53.571336 
  746000   -58882.791    36915.638    39623.818    35964.155   -208.27468    180.43701    12.676072 
  747000   -58882.341    37088.845    39523.706    35877.943    -12.84547    157.87732   -53.948824 
  748000   -58882.499    36931.699    39558.996    35719.503   -68.871154   -59.711063   -87.060329 
  749000   -58881.795    36793.983    39349.843    35768.382   -59.573158    116.68516   -139.13876 
  750000   -58880.836    36680.838    39300.831    35970.097    -231.2632    175.34377   -209.70098 
  751000   -58876.585    36522.364    38992.084    35651.969   -164.61425    202.36873    -335.1405 
  752000   -58873.931    36312.921    39024.032    35829.925   -224.04128    166.71608   -181.82722 
  753000   -58875.158    36501.643    38816.081    35610.835   -23.461501    47.496516   -228.61891 
  754000   -58878.374    36559.019    39152.992    35942.145   0.97346688    32.293329   -196.53338 
  755000   -58880.305    36738.308    39243.038    35811.892    36.304275    75.610562    -78.17866 
  756000   -58877.481    36754.055    39147.265    35827.517    3.5294542    113.29367    15.894791 
  757000   -58875.069    36638.123    39117.654    35737.164   -88.157173    171.88405    -109.8367 
  758000   -58877.402    36642.693     39058.98    35752.047    52.314451    128.83521   -177.17732 
  759000   -58877.921    36658.584    39093.951    35707.735    126.66682    82.981389   -210.77638 
  760000   -58880.185    36562.668    39004.752    35569.522    213.60834   -67.238702   -172.03443 
  761000   -58876.907    36579.923    39141.825    35934.137    102.46023   -63.036855   -225.25996 
  762000   -58872.284    36645.292    39029.437    35666.155    55.592176   -46.832255   -62.594893 
  763000   -58877.512    36785.236    39161.336    35868.541   -120.24129   -25.650441   -129.60875 
  764000   -58877.444     36920.05    39120.319    35734.347   -66.108025    48.408007    -135.4797 
  765000   -58881.728    36999.196    39427.747     35938.57   -27.730834    98.913724   -186.91469 
  766000   -58878.699    36998.565    39218.534    35581.766    11.178916    64.197899   -68.715817 
  767000   -58879.814    36928.992    39317.882    35709.668    10.181252   -8.9100574    2.7265291 
  768000    -58881.72    36919.691    39207.493    35868.292    28.986448    95.932821   -69.955943 
[...]
  814000   -58879.131    36788.688    39807.406     35839.81    23.740803     -50.4064   -169.00354 
  815000   -58882.206    37141.743    39993.329    36061.802    9.7399955   -25.725329    20.640815 
  816000   -58874.396    36481.237    39469.591    35655.041    136.81422    24.523752   -85.205694 
  817000   -58870.167    36533.167    39465.295    35658.389    279.15779    75.090669   -49.099035 
  818000   -58876.085    36814.791    39949.432    35987.419    215.27727    33.297293   -90.956281 
  819000   -58875.643     37000.95    39780.735    35764.012    171.47947    107.18124   -194.12135 
  820000    -58877.92     37062.56    39973.894    35948.475   -6.1238702    124.61286   -42.807773 
  821000    -58879.68     37085.58    39838.818    35935.866     36.67276    186.38524   -14.278648 
  822000   -58877.387    36891.131    39737.647    36053.225    173.63245    153.10358    10.155949 
  823000   -58879.067     36761.34    39861.532    36130.641    158.76414    201.05981    -9.493718 
  824000   -58875.429    36645.169    39607.716    35792.397    147.48839    196.09735   -47.992659 
  825000   -58872.824    36733.384    39829.443    35964.948    144.45091    187.63982   -35.489405 
  826000   -58878.578    36912.131    39764.475    36157.729     124.4103    168.17723   -111.35412 
  827000   -58880.135    37030.489    39952.489     36037.25    132.74654    83.535592   -28.006545 
  828000   -58873.896    36860.174     39849.73    36111.248    131.01904    114.39995    108.92036 
  829000   -58875.291    36858.193    39677.786    35749.303    74.615044   -67.068559   -46.287222 
  830000   -58867.518    36381.726    39126.451     35402.58    61.555804   -15.100853    48.441917 
  831000   -58875.822    36502.974    39231.764    35651.713    138.83887   -29.282323    4.9589898 
  832000   -58875.226    36732.216    39734.455    35825.283    151.23257   -52.327031    34.612069 
  833000   -58878.866    36946.747    39790.422    35823.242    93.923242     113.2695   -70.862205 
  834000   -58882.379        36826     39992.72    36041.551   -3.8203812    27.842372   -77.907859 
  835000    -58884.55    36953.968    40103.464    36125.996    216.13633    53.005804   -43.314255 
  836000   -58879.115    36639.056    39680.608    36223.662    128.25531   -10.838968   -108.09805 
  837000   -58887.634    37039.572    40204.185    36321.547    137.26343   -3.1921252   -5.4529278 
  838000   -58887.421    37061.215    40121.062    36160.055   -14.412014    82.304517    20.034087 
  839000   -58885.083    37016.733    40149.869    36012.337    20.247925   -9.0312313   -43.827672 
  840000   -58880.708    36916.788    39729.962    35966.801   -52.256918   -64.299181   -30.564527 
  841000   -58882.417    37177.243    39873.625    36150.793   -137.07825   -82.669101   -101.06414 
  842000   -58880.858    36775.052    39397.325    35688.664   -113.17235   -60.084767    -184.3876 
  843000    -58882.16     37116.28    39626.164    36024.213   -32.491256    -57.90656   -175.48471 
  844000   -58879.325     37088.48    39888.869    36162.317    13.294327    3.9596682   -199.66544 
  845000   -58881.345    36953.568    39723.584    36365.497    31.564431   -59.868539   -68.775862 
  846000   -58882.395    37143.485    39962.265    36299.667   -64.011203    -19.28824    55.300657 
  847000   -58880.676    36880.444    39671.677    36076.438   -87.211726    8.7001181    38.658637 
  848000   -58883.672    37145.701    40080.865    36450.118    20.695174   -4.5228735    13.389766 
  849000   -58878.644    36741.699    39422.504    36032.534    259.29646   -154.90668    140.96279 
  850000     -58881.7    36716.214    39605.695    36071.582    32.811676   -131.49432    70.645643 
  851000   -58879.098     36689.19    39421.568    36006.969    70.304525    -209.2746   -11.417281 
  852000   -58877.521    36652.521    39412.657    35753.605    115.73058   -127.94773   -119.56594 
  853000   -58874.649    36334.301    39161.832    35708.071    113.96528   -124.96692    -59.43246 
  854000   -58870.652    36300.815    39494.258    35618.062    83.834576   -37.524391    100.84043 
  855000   -58876.084    36619.681    39735.499    36021.278  -0.89452105   -214.17477     70.07192 
  856000   -58880.357    37070.115    40076.037    36025.467    49.578251   -76.441178    55.362119 
  857000   -58876.302    36626.602    39511.027    35913.845   -40.009097   -71.978705   -99.191733 
  858000   -58876.203    36682.755    39485.614    35817.684   -49.574534   -31.202468   -106.59974 
  859000    -58877.66    36863.104    39747.935    35896.295    68.048831   -66.277622   -97.425203 
  860000   -58880.154    36839.584    39683.379     36060.59    109.47436   -12.033316   -111.99167 
  861000   -58877.411    36608.799    39411.197    35944.048     1.994218   -108.50936    34.673551 
  862000   -58877.562    36292.703    39208.125    35686.526   -118.01041   -153.61302   -33.382029 
  863000   -58882.867    36938.222    39709.271    36241.761   -123.70297   -121.00918    47.753956 
  864000   -58884.918    37071.317    39833.608    36075.181    29.371175   -73.461472    54.274813 
  865000    -58878.32    36582.294    39401.368    35933.639    139.37755   -55.924662   -43.414603 
  866000    -58879.79    36532.159    39377.801    35869.233   -78.364724   -149.50114   -21.093617 
  867000   -58880.221    36939.586    39663.633    36018.436   -142.17983   -237.01538   -12.964458 
  868000   -58877.636     36778.03    39436.684    35787.368    33.771586   -135.55002     29.98817 
  869000   -58878.415    36861.268    39675.384    35709.338      34.2592   -133.31339    12.771578 
  870000   -58874.683    36735.619     39494.28    35667.504   -111.59238   -83.526309   -124.93052 
  871000   -58876.896    36870.884    39443.563    35768.924   -90.402703    181.48645    4.9395675 
  872000   -58883.424    36990.652    39541.104    35713.027   -188.63578    30.166378    63.350003 
  873000   -58881.857    36715.527    39509.389     35619.72   -151.41492     106.0179    49.349258 
  874000   -58883.732    36693.797    39649.366    35863.767   -204.85675   -34.863148   -16.185547 
  875000   -58885.556    37164.477     40190.81    36166.691    -80.55696    11.161558    118.00521 
  876000    -58886.27    36945.555    39845.745     36071.79   -138.42019   -3.3635996    37.364068 
  877000   -58882.991    37028.148    39778.882    36109.178   -61.650251    84.077315   -12.656106 
  878000   -58877.648    36799.512    39507.872    35732.411   -55.177584    95.584208    17.376109 
  879000     -58879.3    36888.967    39544.611    35670.114    17.445013   -62.110186   -114.25763 
  880000   -58875.303    36843.228    39671.157    35661.434   -39.837966     75.19782   -178.69516 
  881000   -58881.296    36802.145    39543.506    35860.277   -128.98463      54.0733    3.9964582 
  882000    -58882.19    36798.879     39583.06    35873.603   -3.9370749    61.213463    55.085218 
  883000   -58884.303    36745.397    39864.362    36084.578   -39.420257    40.295915     109.3722 
  884000   -58881.143    37021.159    39906.212    36086.806   -45.729505     161.8579    90.976686 
  885000   -58877.483    36622.857    39806.932    36038.872   -149.44775    6.0629077   -43.428856 
  886000   -58878.715    36937.403    39912.851    35930.158    82.564229   -28.321405   -142.55113 
  887000   -58876.651    36725.204    39622.799    35839.342   -2.2676792     92.18606   -62.329069 
  888000   -58882.168    36769.306    39830.166    35812.455   -84.492471    1.5371572   -50.924232 
  889000   -58883.145    36969.355    39845.721    36048.039   -96.694384   -25.031807   -21.935231 
  890000   -58876.037    36740.675    39759.529    35931.736   -98.793945   -98.358403   -86.699902 
  891000   -58881.175    36881.077    39638.559    35632.052   -101.82094   -197.62553    -18.44297 
  892000   -58881.125    36876.448    39765.592    35881.105   -70.449204    -77.02969    71.606396 
  893000   -58882.087    36899.017    39860.002     36167.41    106.11028    42.136211    32.977417 
  894000   -58881.523    36975.929    39972.037     35952.62    78.727868    57.730791   -107.20351 
  895000    -58878.74    36694.119    39685.221    35868.061   -27.201499     106.9195   -222.55865 
  896000   -58876.971    36665.214    39574.277    35877.937    41.897629    87.663817   -261.86399 
  897000   -58878.624        36550    39497.471    35707.363    76.675073   -45.199062   -182.19109 
  898000   -58875.289    36636.118    39475.358    35755.674    115.62178    46.483812   -234.87051 
  899000   -58878.844    36596.891    39463.375    35910.014    37.561054    64.718621   -64.820781 
  900000   -58882.091     36704.75    39393.586     35911.49    99.771379   -95.916047    54.249422 
  901000   -58881.088    36601.164    39068.169    35600.263   -82.241162   -57.029099   -74.834437 
  902000   -58881.495     36890.85     39688.41    36054.326    161.55571    34.077347   -98.865529 
  903000   -58887.323    37422.104    40186.204    36422.218   -62.660679    6.8450707    12.669985 
  904000   -58888.639    37126.826    40205.323    36383.347    38.812816    -21.24664    17.464363 
  905000   -58881.099    36852.763    39754.027    36121.598   -72.569572   -7.1587174   -64.238894 
  906000   -58886.031    36911.012    39559.918    36049.192   -78.463944    94.884174    112.61949 
  907000   -58881.062    36836.952    39493.946    35889.481   -36.893632     65.31062    30.970246 
  908000   -58876.661    36591.106    38988.764    35510.006   -56.992647    83.647471    61.089618 
  909000   -58881.442    36694.464    39276.929    35698.318     -42.9776    56.181882    108.75375 
  910000   -58879.007     36796.67     39389.52    35854.036   -43.066166   -149.03992    122.22005 
  911000    -58878.52    36879.215    39357.483    35903.961   -75.965837     51.98562   -77.582798 
  912000   -58875.761    37028.493    39563.548    36044.225    -89.42382    194.87218    36.316706 
  913000   -58878.994    36804.148    39178.989    35945.878    19.753039    90.280529   -21.020923 
  914000   -58880.413    36769.017    39206.517    35908.029   -3.6933157    107.14349   -2.3005573 
  915000   -58881.351    36790.642    39295.677    35794.403     -13.7622    21.665462   -48.730533 
  916000   -58884.014     37044.08    39411.853     36008.34   -28.988526    74.947545    35.138535 
  917000    -58883.14    36634.587    39236.294    36149.054   -101.18318    169.23769    9.9079572 
  918000   -58887.809      37100.3    39883.108     36419.21   -186.05689     127.4077    4.2052439 
  919000   -58884.704    37117.517    40066.521    36509.909   -117.10072    134.45988   -49.446619 
  920000   -58884.851    37460.717    40293.313    36550.163   -260.23123    193.58646     78.26072 
  921000    -58881.26    37141.165    39778.256    36215.546   -91.531979   -47.361767   -57.689369 
  922000   -58876.322    36794.408    39528.054    35896.631   -122.57564    48.248677   -148.13246 
  923000   -58872.533    36792.424    39559.543    35962.292   -277.95073    52.259648    33.667075 
  924000   -58880.688    36898.512      39711.5    35870.325   -265.62401    61.373037     99.28203 
  925000   -58878.479    36808.875    39267.817    35673.453   -53.021098    43.026986   -22.888136 
  926000   -58877.464    36834.438     39432.02    35750.497   -17.541124    79.875756   -31.005757 
  927000    -58883.11    37083.395     39945.72    36274.961   -26.523687    11.790445   -50.777226 
  928000   -58883.056    37053.756    39724.451    36002.099    87.838014    54.503175   -133.67176 
  929000   -58880.129    36795.173     39257.61    35989.745    88.856691    94.602135    24.459583 
  930000   -58882.277    36655.068    39435.611    35785.597    96.938018    277.73347   -29.162239 
  931000   -58877.919    36749.396    39498.352     35970.53    126.83147    113.46882   -72.392659 
  932000   -58876.091    36809.229    39501.056    36167.115    33.102205    156.63668    91.197603 
  933000   -58874.627    37167.788    39580.389    35775.019    3.1085964    164.19493   -112.83845 
  934000   -58877.699    36953.101    39644.523    35898.421    37.516079    253.15908   -12.403117 
  935000   -58879.414    36751.125    39616.114    35903.894    159.11609    245.39348   -66.249795 
  936000   -58881.197     37029.63    39774.622    35873.958    243.51983    262.35651   -52.579367 
  937000   -58887.722    37066.636    39645.123    36023.732    214.20112    58.906869   -121.85787 
  938000    -58882.58    37144.097    39610.502    36039.736    224.99596    8.5184634   -101.09646 
  939000   -58882.362    37266.757    39596.892     36231.84    182.52669    58.296781   -72.522332 
  940000   -58882.869    37364.486    39814.206     36045.07    163.47768    96.365678   -128.22741 
  941000   -58883.445    37400.257     39871.46    36110.968    169.58518    170.09476   -84.695461 
  942000   -58885.246    37245.261    39673.505    36116.879    26.379906    69.903523    -43.39992 
  943000    -58887.29    37382.847    40161.072    36349.385    54.930208     137.6963    6.2624576 
  944000   -58882.355    37135.001    39775.443    36207.206    28.512932    164.93478   -77.211017 
  945000   -58886.137    37315.026    39999.161    36404.061    49.625422    191.54953    19.750404 
  946000   -58881.035     37157.27    39719.139    36185.445    131.11288    80.425129   -123.46257 
  947000   -58884.307    37082.488    39650.722    36113.068     259.4207     29.96313   -49.620931 
  948000   -58885.673     36939.47    39759.895    36378.388    185.29927   -3.7183102   -61.293959 
  949000    -58888.41    37237.628    39723.685    36171.362    12.862204    34.348773   -15.842562 
  950000   -58882.088    37128.941    39939.469    36123.428    119.11625    163.74836   -109.60014 
  951000   -58882.439    37170.456      39822.5    36144.441   -23.111691    158.10683   -115.77732 
  952000    -58883.24    37266.948    39931.765    36172.798   -9.1835757    79.810212   -43.146162 
  953000   -58879.781    37347.369    40137.207    36327.132    108.95919    86.861445    11.361203 
  954000   -58886.379    37448.858    40281.952    36065.814    128.80422    164.92173    92.687739 
  955000   -58884.642    37114.058    39786.434    36023.537    199.13595    36.080459   -77.793464 
  956000   -58883.829    37074.089    39757.136    36064.816    252.34922    149.19305    63.820704 
  957000   -58891.203    37146.525    39865.032    36125.289    238.56363    51.663628   -54.065462 
  958000   -58886.874    37204.446    39892.321    36324.022    180.95758    97.184021   -29.655501 
  959000   -58885.552    37162.614    39497.597    35912.546    143.84168    96.095004    16.214548 
  960000   -58884.089      37195.1    39430.591    35892.109    295.06804     34.45216    23.414366 
  961000   -58879.681    36674.726    39293.503    35739.797    223.45806    148.65872   -75.073728 
  962000   -58882.181    36928.601    39551.201    35906.902    198.44583    63.409326    3.9349571 
  963000   -58879.403      36753.2     39297.68     35818.55    84.317273    64.548063   -18.950266 
  964000   -58880.171    37055.002    39550.639    35882.682   -25.988717    36.785034   -76.478339 
  965000   -58879.733    36946.212    39258.577    35874.209    73.671338    76.091274    -55.19189 
  966000   -58882.162    36925.327    39405.058    35696.097   -11.752946    210.11639   -37.674942 
  967000   -58881.651    37128.272    39665.146    36010.686   -12.763017    118.71736   -30.739526 
  968000   -58884.303    36993.394    39358.081    35893.112   -35.746849     128.8925    120.65579 
  969000   -58882.437    37189.768     39762.19    35811.899   -111.27958    255.81858    16.106086 
  970000   -58883.483    37122.305    39665.865    35991.582    4.1174171    211.08291    57.493585 
  971000   -58889.835    37341.763    40066.341    36176.916   -70.165324    138.41817   -20.612228 
  972000   -58888.952    37220.183    39981.645    36084.761   -112.36141    139.74286    52.991423 
  973000   -58884.057    37298.148    39846.279    36282.548    26.378429    138.24264    16.806586 
  974000   -58888.722    37714.105    40403.751    36499.553   -13.007444    195.86348   -92.840843 
  975000   -58893.589    37769.439    40388.021    36653.854   -83.000638    256.78956   -88.413051 
  976000   -58890.854     37870.43    40196.365    36384.328   -163.70991    191.58411   -77.725092 
  977000   -58886.584    37379.367    39822.629    36431.406   -144.99867    121.31673   -29.799589 
  978000   -58884.569    37459.259    40038.788     36475.97   -211.38479    107.65437   -64.282408 
  979000   -58888.404    37546.912    40148.388    36345.786   -123.62762    197.07573    8.4825755 
  980000    -58885.46    37449.741    40154.459    36297.205   -119.34047     199.6756    114.98821 
  981000   -58886.661    37714.849    39996.577    36041.996    81.252653    119.25466    15.547848 
  982000   -58881.097    37147.885    39586.268    35836.954    92.446452    203.23652   -9.4254827 
  983000   -58890.617    37601.167    39896.616    36138.005   -58.048684    192.64533   -4.2051471 
  984000   -58888.248    37363.705    39919.593    36219.409    -59.82728    221.48272   -24.344039 
  985000    -58887.16    37052.682    39860.101    36135.523   -33.950528    163.54853   -27.496634 
  986000   -58892.089    37364.963    39939.998    36134.447    -41.55936    263.83009    -38.28802 
  987000   -58883.672     36938.57    39504.151    35954.783   -108.89531    268.79351   -42.077561 
  988000    -58882.15    37165.923    39600.662    35941.276   -162.00598    182.04321   -43.644489 
  989000   -58885.497    37408.676    39711.584     35883.01   -115.19424    167.82996    -78.18644 
  990000   -58884.245    37157.722    39427.546    35717.103   -218.44973    8.1605544   -17.075363 
  991000   -58880.286    36995.125    39394.513    35843.934   -52.799505    204.97304    25.773647 
  992000   -58882.872    36999.136    39370.734    35847.712   -206.04131    74.370335   0.78877726 
  993000   -58884.941    37395.626    39815.365    35847.312   -144.42203    60.491396   -203.07246 
  994000   -58879.446     36906.28    39416.068    35667.294   -91.193963    170.65507    -145.1923 
  995000   -58881.139    37016.929    39561.987    35763.498   -277.86709    21.919078    10.549125 
  996000   -58887.215    37157.368    39663.303    36083.798   -169.20489    259.62934    5.8744222 
  997000   -58883.303    37071.456    39712.699    36158.335   -173.42638    97.614292    126.54207 
  998000   -58886.849     36951.35    39649.197     36042.72   -149.07623    153.48576    92.597326 
  999000   -58886.062    36988.343    39553.264    35866.121   -90.031958    68.619134    58.174457 
 1000000    -58880.23    36917.095    39514.735    35667.094   -131.27811    82.562479   -42.812566 
Loop time of 184273 on 24 procs for 1000000 steps with 13500 atoms

Performance: 0.469 ns/day, 51.187 hours/ns, 5.427 timesteps/s
99.4% CPU use with 24 MPI tasks x no OpenMP threads

MPI task timing breakdown:
Section |  min time  |  avg time  |  max time  |%varavg| %total
---------------------------------------------------------------
Pair    | 3147.6     | 3254.3     | 3401.7     | 100.4 |  1.77
Neigh   | 1733.6     | 2012.5     | 2232.7     | 279.4 |  1.09
Comm    | 380.21     | 552.94     | 710.34     | 436.1 |  0.30
Output  | 0.1073     | 0.13776    | 0.22453    |  11.6 |  0.00
Modify  | 1.7841e+05 | 1.7844e+05 | 1.7851e+05 |   8.8 | 96.84
Other   |            | 11.85      |            |       |  0.01

Nlocal:    562.5 ave 600 max 525 min
Histogram: 12 0 0 0 0 0 0 0 0 12
Nghost:    3085.5 ave 3123 max 3048 min
Histogram: 12 0 0 0 0 0 0 0 0 12
Neighs:    49500 ave 53197 max 45862 min
Histogram: 6 0 4 2 0 0 3 3 1 5

Total # of neighbors = 1188000
Ave neighs/atom = 88
Neighbor list builds = 5000000
Dangerous builds = 0
Total wall time: 51:11:12
