Lammps data input converted from CFG format

  12150 atoms
      0 bonds
      0 angles
      0 dihedrals
      0 impropers

      4 atom types
      0 bond types
      0 angle types
      0 dihedral types
      0 improper types

      0   25.203499999999998 xlo xhi
      0  269.298000000000002 ylo yhi
      0   71.324200000000005 zlo zhi
         1.037070000000000   -1.402240000000000   -0.042637600000000 xy xz yz

Atoms

           1     2      2.251628287801653   78.463608494220480    0.631420484390921  0  0  0
           2     2      2.134276624670419   80.766943723399237    4.610645107198533  0  0  0
           3     4      3.005827759211526   78.561347241904414    5.887459257710755  0  0  0
           4     1      3.114455856476193   80.696447269865530    1.955928381786846  0  0  0
           5     4      4.064339279548228   78.472801223275468    3.307126701542820  0  0  0
           6     4      3.919582276267391   80.737971500192302    7.258758919583489  0  0  0
           7     1      2.019724741547558   78.439159298297170    8.532100912612737  0  0  0
           8     1      1.955296520551440   80.723449304121161   12.559617822274792  0  0  0
           9     4      2.912953308027461   78.506498659687210   13.863480536958955  0  0  0
          10     4      2.973881346253941   80.738677319658819    9.882376011850246  0  0  0
          11     4      3.890397715899063   78.531422596170557   11.234464983146786  0  0  0
          12     1      3.806446409916102   80.756287146474008   15.174920748751415  0  0  0
          13     4      1.921656038030943   78.548688936037763   16.480617545674850  0  0  0
          14     3      1.817423019891223   80.732358332009412   20.469149703954336  0  0  0
          15     1      2.688412008046321   78.428666636149686   21.776022014739617  0  0  0
          16     1      2.796796442314225   80.764847596657276   17.814812125374999  0  0  0
          17     3      3.675651349789472   78.477878797323328   19.073105754938517  0  0  0
          18     1      3.603898041951958   80.717378923294007   23.109767207800697  0  0  0
          19     1      1.661739567621125   78.443680133932290   24.546255170058060  0  0  0
          20     2      1.659819488263477   80.813471720881068   28.367297236808671  0  0  0
          21     3      2.611715849186190   78.533881738144018   29.635949901578023  0  0  0
          22     2      2.638405394685701   80.778208456334468   25.777322307575901  0  0  0
          23     4      3.563842093324689   78.600999898675227   27.088849363635536  0  0  0
          24     1      3.493204343628637   80.819036644977857   31.001635534378057  0  0  0
          25     3      1.534999834180210   78.521874976806927   32.415991297564290  0  0  0
          26     4      1.503771536042208   80.796669381509872   36.289371562444693  0  0  0
          27     1      2.439746505646791   78.487940970169134   37.557179387168851  0  0  0
          28     1      2.488295174932281   80.824317575421077   33.647675584289601  0  0  0
          29     4      3.427693718190468   78.597497270093157   34.966068218363311  0  0  0
          30     4      3.327231666234210   80.748754047987902   38.905545050532808  0  0  0
          31     1      1.482505901553646   78.473406593344322   40.300486913075822  0  0  0
          32     3      1.359392239657624   80.770630241086110   44.207387854854446  0  0  0
          33     1      2.228516406730978   78.393889940475646   45.479790159703839  0  0  0
          34     2      2.345774151453986   80.769815643995045   41.534156150149329  0  0  0
          35     2      3.252182212925874   78.523030910785465   42.838656768994376  0  0  0
          36     3      3.162408679710707   80.692300865420833   46.869788437961311  0  0  0
          37     3      1.286834878896657   78.491298210723798   48.180258970244999  0  0  0
          38     3      1.250285939018028   80.711992749883620   52.153030263084645  0  0  0
          39     4      2.039468822610766   78.482520125828231   53.537816562616470  0  0  0
          40     2      2.190545347245094   80.709939933542984   49.520383509844983  0  0  0
          41     1      3.074777504947647   78.464710335068759   50.840480869406299  0  0  0
          42     3      3.040159986148841   80.737533819833118   54.753144681701684  0  0  0
          43     4      1.167535777884263   78.508361112005304   56.081305906736944  0  0  0
          44     4      1.063328978968579   80.735998645130564   60.054403585267629  0  0  0
          45     3      1.923744862954281   78.453360760321260   61.336203242231690  0  0  0
          46     1      2.048007838063250   80.739946461049513   57.431762675013339  0  0  0
          47     2      2.926186552376726   78.531078563169658   58.710126160886070  0  0  0
          48     4      2.903376143409809   80.706485245406355   62.664327446943986  0  0  0
          49     2      1.024683127327598   78.504563170235130   63.981459660401661  0  0  0
          50     4      0.923507604421734   80.687237995762459   67.943536608397523  0  0  0
          51     3      1.877547366187925   78.403367181349168   69.244413611920891  0  0  0
          52     1      1.901086499334462   80.733840693069794   65.299829030936806  0  0  0
          53     4      2.812323545429865   78.471817967311111   66.585403405567490  0  0  0
          54     4      2.731067800561926   80.677492567547446   70.610805169159363  0  0  0
          55     3      2.207261820561541   83.045571577638555    0.653984226394404  0  0  0
          56     3      2.165663678046622   85.317299493056538    4.585021142788169  0  0  0
          57     2      3.022951300633228   83.031491069596598    5.931281714852394  0  0  0
          58     4      3.144405305431014   85.285943207430577    1.945478797870869  0  0  0
          59     4      4.003587670195064   83.063270762767843    3.291106216464089  0  0  0
          60     2      3.949664076335784   85.335766952414758    7.219891609376619  0  0  0
          61     4      2.086155957790262   83.012911595217972    8.558742292294710  0  0  0
          62     3      2.034623979858608   85.396496684852352   12.563180506295277  0  0  0
          63     3      2.875401597147238   83.087281890565990   13.853053645030247  0  0  0
          64     1      2.998492239341675   85.337380975702317    9.882722146818358  0  0  0
          65     2      3.885269726940218   83.064117008912106   11.230974451347482  0  0  0
          66     2      3.823685749991068   85.381533940424717   15.177495216005916  0  0  0
          67     1      1.869699276641738   83.055795178754124   16.522846165382099  0  0  0
          68     2      1.828128334214060   85.374688596657833   20.491457955044318  0  0  0
          69     2      2.729841252023469   83.073713766059370   21.789345950022458  0  0  0
          70     3      2.826998754168146   85.385440016024191   17.828624270382530  0  0  0
          71     3      3.750264572331101   83.063676699371328   19.196524194937499  0  0  0
          72     1      3.637698299288528   85.376986333832747   23.102719620487282  0  0  0
          73     3      1.720070651072578   83.074293714223074   24.442055545924376  0  0  0
          74     4      1.702445860453662   85.349982230626125   28.377455345082062  0  0  0
          75     2      2.569665736538858   83.107088324524099   29.687700882023833  0  0  0
          76     4      2.654697002976278   85.347029052529948   25.774438606365337  0  0  0
          77     2      3.543081716283811   83.089879876974180   27.075923332578370  0  0  0
          78     4      3.488512649602491   85.380126020394286   30.981198677560506  0  0  0
          79     2      1.614061233588628   83.096536768116167   32.322066180593119  0  0  0
          80     3      1.523069881980135   85.353948159883871   36.293091444318627  0  0  0
          81     4      2.384082710858729   83.027858501884410   37.614915684116568  0  0  0
          82     3      2.498592905968771   85.382505409911218   33.606845122306133  0  0  0
          83     1      3.418578718172340   83.103089778621651   34.993750496071911  0  0  0
          84     1      3.340563472053716   85.391710360052215   38.895339954748529  0  0  0
          85     2      1.440695759615276   83.062108125485949   40.228082375667213  0  0  0
          86     3      1.353502199404284   85.365392749782259   44.188320874743091  0  0  0
          87     4      2.282197233875633   83.057896266225640   45.519885017254325  0  0  0
          88     4      2.331863594897484   85.334692872385190   41.559827827209723  0  0  0
          89     4      3.247743088014637   83.058418978724390   42.879157516331105  0  0  0
          90     4      3.167799542094758   85.328856387756090   46.831919031428839  0  0  0
          91     1      1.323316326861452   83.003971469684217   48.160470219279098  0  0  0
          92     2      1.224085149448928   85.282341141990244   52.138685175651275  0  0  0
          93     4      2.132230208946881   83.025502374143585   53.433634832091748  0  0  0
          94     2      2.179458214712611   85.288294200761783   49.488329751433717  0  0  0
          95     4      3.110439025243398   82.970045455723735   50.831754412766479  0  0  0
          96     1      3.054523353494583   85.264751322698103   54.802803518158413  0  0  0
          97     1      1.174666179831882   83.018896214412635   56.087045048872483  0  0  0
          98     3      1.104607908111996   85.331051392580704   60.019210695826096  0  0  0
          99     3      1.966486901965347   82.969467567332558   61.390270584085016  0  0  0
         100     4      2.045754524816259   85.303970859893184   57.416813871629969  0  0  0
         101     1      2.979152088229069   83.042653493703241   58.725787151900988  0  0  0
         102     1      2.898408362910233   85.302047073380990   62.660460689677791  0  0  0
         103     2      1.014299527701538   82.975978276908322   64.012828960124423  0  0  0
         104     2      0.923634469861785   85.269560180492093   68.009867180247923  0  0  0
         105     3      1.850956746626502   82.990576854887919   69.293926906898690  0  0  0
         106     1      1.946311601454056   85.258461350096610   65.364271072282236  0  0  0
         107     4      2.802707052063703   82.997941908715589   66.651410742485851  0  0  0
         108     2      2.718283746645262   85.282926932879974   70.633994988011395  0  0  0
         109     1      2.217113970664703   87.575933961321937    0.639439708339229  0  0  0
         110     3      2.167248971017386   89.874757922687863    4.632438545031172  0  0  0
         111     2      3.067728997069813   87.615259531417166    5.938813661118165  0  0  0
         112     3      3.149927427450936   89.954442413538118    1.960004787415385  0  0  0
         113     1      4.042372799188312   87.591226887075322    3.314725916490106  0  0  0
         114     4      3.955416173283154   89.919091931084409    7.232461677213017  0  0  0
         115     3      2.032420035115901   87.655696375898330    8.520220966615312  0  0  0
         116     4      1.994838996024582   89.939117156272957   12.586384518918734  0  0  0
         117     2      2.898381144134983   87.652796158251107   13.889090971861053  0  0  0
         118     3      2.991878563219364   89.895072356404881    9.924887570302269  0  0  0
         119     2      3.906322186275428   87.631615153665692   11.240519495158113  0  0  0
         120     3      3.773754712627132   89.949448451777272   15.210829603561095  0  0  0
         121     4      1.890573156667130   87.679376421788191   16.537211034907781  0  0  0
         122     2      1.849040289999824   89.942346922909181   20.464559021331862  0  0  0
         123     2      2.734177124545702   87.659114564845765   21.770594560595182  0  0  0
         124     4      2.780187446358504   89.924717398521850   17.869468310799224  0  0  0
         125     1      3.700264318836432   87.656360441744511   19.193606941519096  0  0  0
         126     1      3.646514287066683   89.953815949887598   23.083234892794284  0  0  0
         127     1      1.788589853774859   87.629660195245293   24.399918357319645  0  0  0
         128     2      1.707977590839335   89.957995246210075   28.416606190605936  0  0  0
         129     4      2.581433101746319   87.672776146028966   29.717960843403372  0  0  0
         130     3      2.681301160279443   89.962506890841468   25.752568231318026  0  0  0
         131     1      3.610573097908953   87.640365684496984   27.090978287691289  0  0  0
         132     4      3.487774181050174   89.968251338734788   31.016415499558970  0  0  0
         133     4      1.624592156619934   87.707355464155754   32.307931688351196  0  0  0
         134     2      1.534649785356227   89.979385296487052   36.288304859831555  0  0  0
         135     2      2.421940777036020   87.695570370323381   37.593993312924766  0  0  0
         136     2      2.507016829767908   89.964985080428406   33.621385093438512  0  0  0
         137     1      3.412669753553889   87.699966190155763   34.988791722190591  0  0  0
         138     3      3.332076231333664   89.971818086049012   38.893960541755227  0  0  0
         139     3      1.477393880086913   87.666532692892233   40.240115226478324  0  0  0
         140     2      1.362415265636917   89.926494962833189   44.183903149677136  0  0  0
         141     4      2.264776433234701   87.654694556496977   45.513213333098520  0  0  0
         142     3      2.343392954809711   90.004965458755620   41.563651720713246  0  0  0
         143     3      3.222181471210646   87.641209332169126   42.862798423413892  0  0  0
         144     4      3.183518773935784   89.935670905903905   46.842683343469012  0  0  0
         145     1      1.325396257084396   87.647446350447325   48.158651959143235  0  0  0
         146     3      1.183760920378755   89.932509671955927   52.095524004974735  0  0  0
         147     3      2.103419786494236   87.570555638883931   53.457263921621269  0  0  0
         148     2      2.169445319902385   89.969954424867481   49.467251483211001  0  0  0
         149     1      3.088571114350884   87.615181468415244   50.789304611714563  0  0  0
         150     3      3.022086307920686   89.918678634039310   54.822009430036047  0  0  0
         151     1      1.107947872769200   87.601954279283333   56.146454746442309  0  0  0
         152     4      1.069391360543524   89.882401349506821   60.037052863863508  0  0  0
         153     4      1.991690725208990   87.651650899132051   61.374503831196066  0  0  0
         154     2      2.046094921088896   89.920497274686639   57.460026423292888  0  0  0
         155     1      2.941851527925851   87.611255057294045   58.751866051243944  0  0  0
         156     2      2.911902471977290   89.878953612336502   62.658854188250388  0  0  0
         157     1      1.011407359079078   87.578446356007106   64.001156739426335  0  0  0
         158     3      0.913041344633731   89.867501500240024   68.019349777937578  0  0  0
         159     4      1.822440185908975   87.515126704378545   69.304968940082759  0  0  0
         160     1      1.887534496115264   89.907710947851868   65.322503167305939  0  0  0
         161     2      2.802319362897454   87.552153492855012   66.696130643958966  0  0  0
         162     3      2.745802451601866   89.876172965104445   70.631069094967543  0  0  0
         163     2      2.232140960607267   92.257225140428801    0.652923436778645  0  0  0
         164     1      2.136098881563944   94.555047371485514    4.618985920480612  0  0  0
         165     1      3.101520302880679   92.218874676615442    5.909833094925361  0  0  0
         166     2      3.149347850174231   94.509665518897407    1.968428136221996  0  0  0
         167     4      4.070191846657201   92.214883993375409    3.273180286011546  0  0  0
         168     3      3.941474564559966   94.533811016299083    7.287764486747252  0  0  0
         169     3      2.097308062511267   92.223869754408128    8.559809208801855  0  0  0
         170     4      1.998077622598817   94.537820982922412   12.601298336443184  0  0  0
         171     2      2.862190644088524   92.236824133943699   13.875915160508583  0  0  0
         172     1      2.955515069710918   94.577547923039489    9.940273223477288  0  0  0
         173     1      3.885729734430645   92.232551207271982   11.237874071040356  0  0  0
         174     1      3.802841968827313   94.525977500884991   15.192721431510886  0  0  0
         175     3      1.935796393929507   92.239701385968388   16.506532061491505  0  0  0
         176     2      1.826233584196083   94.525888682888393   20.488382171187638  0  0  0
         177     2      2.733345588526537   92.259340904680485   21.794045527961181  0  0  0
         178     1      2.812554150599211   94.543991269189434   17.852184601564630  0  0  0
         179     1      3.742492566513941   92.236599457993165   19.171079266601890  0  0  0
         180     2      3.628118531311761   94.495578964627612   23.088040821790514  0  0  0
         181     2      1.768043202743636   92.259168052804498   24.402996272567950  0  0  0
         182     3      1.677994205351527   94.493385559734364   28.389553676065891  0  0  0
         183     2      2.577531050418993   92.200766208691448   29.715204882320226  0  0  0
         184     3      2.664282383493267   94.531610582583710   25.708590626045940  0  0  0
         185     1      3.557080679720259   92.231321939057764   27.092011955746166  0  0  0
         186     3      3.457278132088391   94.464337359967857   31.025379635147456  0  0  0
         187     2      1.609959914147535   92.239574993223911   32.318577858935633  0  0  0
         188     2      1.531708929421378   94.547950918846553   36.277668566128469  0  0  0
         189     4      2.400563739004488   92.265293729915172   37.597028244360779  0  0  0
         190     2      2.501932408443497   94.530753853756423   33.657385475791081  0  0  0
         191     1      3.425772653451411   92.246171291492431   34.947723006454233  0  0  0
         192     1      3.321442135432400   94.556398921464876   38.919073663050121  0  0  0
         193     2      1.472955413631469   92.266298761717735   40.217364088093248  0  0  0
         194     2      1.376812877284158   94.539071811725606   44.179206712254704  0  0  0
         195     3      2.259704777932136   92.250924167790316   45.504224469104344  0  0  0
         196     4      2.357911311386043   94.515247440631981   41.568553445902239  0  0  0
         197     2      3.254639872784586   92.278672593711590   42.850124359505067  0  0  0
         198     2      3.163664724787334   94.542459688879376   46.831747002257707  0  0  0
         199     2      1.287663363220371   92.218751091568066   48.164766055803710  0  0  0
         200     1      1.207539763196658   94.533316578881085   52.166174641764599  0  0  0
         201     3      2.130395473721745   92.250111661488518   53.443688698460015  0  0  0
         202     3      2.171013423076652   94.513875402653454   49.470950980333576  0  0  0
         203     4      3.109717844403924   92.231829375395463   50.797367383420486  0  0  0
         204     2      3.005745671284347   94.525865479946333   54.791778517981875  0  0  0
         205     3      1.112851122866145   92.241882372988059   56.112303971648217  0  0  0
         206     3      1.014056064552781   94.517827336885674   60.050001127611296  0  0  0
         207     1      1.958164991687533   92.153908878552414   61.394497561775395  0  0  0
         208     4      2.040135981009810   94.531899988772693   57.415578917890549  0  0  0
         209     4      2.958565087692547   92.188517743165590   58.734249091043154  0  0  0
         210     3      2.861646728435802   94.519819836622972   62.726487174924181  0  0  0
         211     2      0.967464567537224   92.198363233602407   64.032674623147955  0  0  0
         212     1      0.885992650984741   94.522584895119778   68.036994119251176  0  0  0
         213     1      1.778495328176475   92.217663160310622   69.340264884991356  0  0  0
         214     1      1.853851873818025   94.478986820474745   65.358490440913684  0  0  0
         215     4      2.812095050867375   92.199699317025136   66.685564811542548  0  0  0
         216     4      2.677361860893757   94.475294276390130   70.681971348069737  0  0  0
         217     1      2.216262290348955   96.803377016017862    0.667567984303255  0  0  0
         218     3      2.136467189684164   99.092984650194992    4.630686081838365  0  0  0
         219     4      3.080471323127489   96.835842071802318    5.966844870291232  0  0  0
         220     2      3.150699042754411   99.070025503613223    1.983401233984971  0  0  0
         221     2      4.000915940726048   96.826947861071886    3.325740727258265  0  0  0
         222     2      3.941409317485283   99.085616088193319    7.256479576389380  0  0  0
         223     2      2.092113880302458   96.824885440817752    8.568628665039661  0  0  0
         224     3      2.021595380267803   99.105481868095694   12.580653705053182  0  0  0
         225     2      2.877019525198456   96.813362459589456   13.878825175532636  0  0  0
         226     3      2.970050605698602   99.101003770218398    9.892560098426310  0  0  0
         227     2      3.908176833150048   96.838646976534534   11.238904554978815  0  0  0
         228     3      3.813416076756154   99.113487091041023   15.189706912635245  0  0  0
         229     2      1.914551713036977   96.845832342700277   16.507277940895229  0  0  0
         230     1      1.819750050500884   99.091976303087023   20.431675716377626  0  0  0
         231     1      2.752188069988651   96.792890853176289   21.805790112153996  0  0  0
         232     2      2.829523771768289   99.128561337959624   17.806795322527655  0  0  0
         233     3      3.711212477829684   96.823785070293908   19.145948259429655  0  0  0
         234     2      3.640641166125390   99.119033383737445   23.123692577150003  0  0  0
         235     3      1.712859792850292   96.846038502483196   24.425735535511453  0  0  0
         236     1      1.702719990364790   99.108632829928112   28.352188700284408  0  0  0
         237     3      2.555404904356749   96.807624288526426   29.698402740109479  0  0  0
         238     2      2.678397971212997   99.105627961869203   25.720009780626558  0  0  0
         239     2      3.559626385253404   96.830951682553760   27.057889498212628  0  0  0
         240     3      3.496767355758150   99.146267539885685   31.032573502483217  0  0  0
         241     2      1.577172628036901   96.792224815574855   32.359942627389159  0  0  0
         242     4      1.520888675869302   99.089740279606559   36.294072517765699  0  0  0
         243     2      2.414413185588223   96.813407973024127   37.592314873372743  0  0  0
         244     2      2.500475760280794   99.084512007476448   33.687237911140613  0  0  0
         245     2      3.384248512315248   96.814003493667329   34.992440829107792  0  0  0
         246     1      3.290328030908466   99.080370725291374   38.918130002637980  0  0  0
         247     4      1.439828255261764   96.810690896934602   40.241858499688412  0  0  0
         248     3      1.374190528110361   99.092261882987628   44.218452812729510  0  0  0
         249     2      2.265252412153782   96.789066380286414   45.517311842291186  0  0  0
         250     2      2.358408442321115   99.098320387344529   41.559418723499178  0  0  0
         251     1      3.220840737448661   96.804976941029622   42.872893900971633  0  0  0
         252     3      3.143182417597365   99.106754053623817   46.860649433493784  0  0  0
         253     1      1.279792568958892   96.858372312730779   48.146360984670999  0  0  0
         254     2      1.204520860118369   99.094704720878511   52.151762047559259  0  0  0
         255     4      2.089050582284150   96.822805983278286   53.479795756779858  0  0  0
         256     2      2.176666388341718   99.111055136199667   49.522872279391215  0  0  0
         257     2      3.073656176346889   96.810500096819993   50.819969591147697  0  0  0
         258     2      2.987610743161092   99.091825766809038   54.766411464387680  0  0  0
         259     2      1.107231128604588   96.777671019757847   56.105191562035678  0  0  0
         260     2      1.007526162233314   99.077459603295281   60.069262640460536  0  0  0
         261     1      1.916569427360038   96.832278435216665   61.402871537783525  0  0  0
         262     1      1.988839730544221   99.072720964909550   57.415117240115933  0  0  0
         263     4      2.898638987282188   96.772565885751447   58.736007633227075  0  0  0
         264     4      2.822767149227219   99.052330967645432   62.759228060232878  0  0  0
         265     2      0.940964873499846   96.815769616528044   64.046532590929047  0  0  0
         266     2      0.867688806408716   99.054380952357434   68.012254535149950  0  0  0
         267     4      1.824382603692458   96.795600873985606   69.350522271391625  0  0  0
         268     2      1.864246020486267   99.056636777858259   65.361816986406637  0  0  0
         269     3      2.773107048715593   96.804547888939055   66.660684824597027  0  0  0
         270     4      2.659748456246757   99.039373881507359   70.681204177080232  0  0  0
         271     3      2.197148568434152  101.354592127805034    0.673024532697483  0  0  0
         272     3      2.110230962757798  103.679279039949364    4.653844521049332  0  0  0
         273     2      3.037314156046986  101.362383801674312    5.972914106592063  0  0  0
         274     1      3.092694373065106  103.703531700038155    1.978435108304954  0  0  0
         275     3      4.013301600691062  101.350227185773988    3.332759887456620  0  0  0
         276     3      3.961061389793975  103.686517338626402    7.255383502479735  0  0  0
         277     2      2.054743552591136  101.364191722640626    8.584998608704277  0  0  0
         278     4      1.982571834468871  103.674143481977666   12.576922320426741  0  0  0
         279     1      2.896960027532756  101.425248984225163   13.884188926885940  0  0  0
         280     1      2.994179463471519  103.671794381515028    9.935911062259633  0  0  0
         281     2      3.893798162836476  101.373839531062288   11.241398107194458  0  0  0
         282     2      3.811397073184166  103.686854035533329   15.216170513704174  0  0  0
         283     2      1.956249137278299  101.388646556138369   16.509979014190417  0  0  0
         284     1      1.903613399879879  103.669671066699209   20.407302518777460  0  0  0
         285     1      2.802210201023149  101.367227999838477   21.765440190063131  0  0  0
         286     4      2.873533326486943  103.680762692119501   17.791994083196734  0  0  0
         287     2      3.764246896491000  101.399336515113291   19.103015717995408  0  0  0
         288     3      3.698854607316548  103.678154586052671   23.081857519102435  0  0  0
         289     4      1.796514497680839  101.370553303233052   24.401180465174114  0  0  0
         290     4      1.718597504799054  103.675671799044039   28.395841525317270  0  0  0
         291     4      2.603734507500206  101.418465336632451   29.680042215850047  0  0  0
         292     3      2.709511634361106  103.651021768070393   25.739029875937455  0  0  0
         293     3      3.603599567417588  101.370353271054213   27.055353540747920  0  0  0
         294     4      3.505742799335811  103.663528748497114   30.995335766874184  0  0  0
         295     3      1.627685242431046  101.363188714745263   32.320048968658746  0  0  0
         296     1      1.543333570399236  103.701800704407560   36.324397302114527  0  0  0
         297     2      2.427046823002048  101.385665913324644   37.604009151599698  0  0  0
         298     3      2.548308882305061  103.678898452697510   33.650273843310693  0  0  0
         299     2      3.420947935013092  101.377785570168712   35.000744186288081  0  0  0
         300     3      3.333976038266548  103.718729132522569   38.935422517480852  0  0  0
         301     3      1.437385042479204  101.388588367692009   40.224552040512819  0  0  0
         302     1      1.335479534678258  103.733846572580021   44.211933142030745  0  0  0
         303     4      2.297105789860558  101.428206530324189   45.524386865379711  0  0  0
         304     4      2.322522723717629  103.712245981192737   41.594206971801846  0  0  0
         305     4      3.224720618535438  101.413678472725621   42.884299254404290  0  0  0
         306     2      3.147618300749527  103.698969872858754   46.895507540728637  0  0  0
         307     1      1.309225547428343  101.362014541893515   48.159084142075642  0  0  0
         308     3      1.195503536362929  103.720785254454100   52.160476674986356  0  0  0
         309     4      2.078235391110758  101.370636930793111   53.468200600566504  0  0  0
         310     1      2.206786537236315  103.703474797263496   49.504026812896228  0  0  0
         311     2      3.073011138351941  101.390841739916368   50.825326123174747  0  0  0
         312     2      2.996532377360766  103.675952694485431   54.785275691839544  0  0  0
         313     2      1.085009325162432  101.380481185804115   56.108950484455228  0  0  0
         314     1      0.977096583910132  103.657763900092561   60.037760732213904  0  0  0
         315     1      1.962273156687998  101.326234402405703   61.380745926015152  0  0  0
         316     4      2.020948072580635  103.613968795307628   57.412240412171037  0  0  0
         317     4      2.883534206488920  101.375799061047758   58.729066014116839  0  0  0