LAMMPS (23 Jun 2022)
Running on 40 partitions of processors
Step MaxReplicaForce MaxAtomForce GradV0 GradV1 GradVc EBF EBR RDT RD1 PE1 RD2 PE2 ... RDN PEN
0    3.2434247   0.91310505 0.0008897467 1.9335955e-05    3.2323384     1.526166    1.3666191    7.5089101                    0                    0          0.025641026          0.011408208          0.051282051           0.04432461          0.076923077          0.097167404            0.1025641           0.16784679           0.12820513           0.25376871           0.15384615           0.35217894           0.17948718           0.46022095           0.20512821           0.57508107           0.23076923           0.69381368           0.25641026            0.8135759           0.28205128            0.9315473           0.30769231            1.0449509           0.33333333            1.1512019           0.35897436            1.2477884           0.38461538            1.3325452           0.41025641            1.4035857           0.43589744            1.4594014           0.46153846            1.4988613           0.48717949             1.521233           0.51282051             1.526166           0.53846154            1.5137811           0.56410256             1.484565           0.58974359            1.4393633           0.61538462            1.3793768           0.64102564            1.3062254           0.66666667            1.2217159           0.69230769            1.1278148           0.71794872            1.0267775           0.74358974           0.92081964           0.76923077            0.8122097           0.79487179           0.70347591           0.82051282           0.59740469           0.84615385           0.49682376           0.87179487           0.40448528            0.8974359           0.32309294           0.92307692            0.2553248           0.94871795           0.20378234           0.97435897           0.17102267                    1           0.15954682 
100  0.052334674 0.00014621258 0.00011295429 1.6197027e-06  0.033273081    1.0151857   0.85563832      10.7305                    0                    0           0.02274953        0.00024065361          0.045702075        0.00097275479          0.069041539         0.0022235388          0.092916869          0.004035581           0.11743223         0.0064636166           0.14264521           0.00957293           0.16857789          0.013446787           0.19523083          0.018247037           0.22250441          0.024642001           0.25009044           0.03598803            0.2777324           0.05756256           0.30522765          0.097538329           0.33252151           0.17565833           0.35943254           0.30472989           0.38592432           0.46510467           0.41205241           0.62994354           0.43784717           0.78071763           0.46331388           0.90221891           0.48850896           0.98254915           0.51355274            1.0151857           0.53859169           0.99945281           0.56376755           0.93645531           0.58920003           0.83169745           0.61496839           0.69379964           0.64109372           0.54024963           0.66755499           0.39676651           0.69432886           0.29158395           0.72140551           0.23275218           0.74873703           0.20248045           0.77618705            0.1864138           0.80340496           0.17841151           0.83018035           0.17328668           0.85627455           0.16930397           0.88165525           0.16613136           0.90634555           0.16365785           0.93040201           0.16181238           0.95392614           0.16053844           0.97706459           0.15979268                    1           0.15954737 
200 0.0054471532 8.2136943e-08 7.3946536e-05 9.351788e-07   0.03236723    1.0148968   0.85534924    10.887201                    0                    0          0.024544361        0.00025583012          0.049158029          0.001027006          0.073905742         0.0023225915          0.098843647          0.004157097           0.12401542          0.006550988           0.14944685         0.0095387666            0.1751332          0.013210904           0.20101918          0.017887042           0.22701945           0.02467347           0.25309667          0.036166597           0.27922423          0.056592267           0.30536975          0.093679121           0.33150244           0.16471665           0.35759569            0.2855973           0.38363191           0.44249777           0.40960272           0.60885688           0.43550781           0.76463558           0.46135447           0.89304739           0.48715628           0.97953668           0.51293105            1.0148968           0.53869885           0.99757613           0.56448013           0.92949957           0.59029323           0.81825567           0.61615263           0.67540882            0.6420668           0.52111262           0.66803702           0.38209716           0.69405654           0.28422779           0.72010858           0.23039835           0.74616655           0.20213051           0.77219846           0.18676788           0.79817026           0.17825627           0.82405517           0.17303387           0.84979185           0.16921464           0.87531095           0.16617579           0.90059311            0.1637535           0.92565748           0.16189823           0.95054378            0.1605874           0.97530439           0.15980673                    1           0.15954752 
300 0.0018879334 1.1830564e-07 4.4276986e-05 5.2033313e-07  0.032995089    1.0148189   0.85527131    10.937154                    0                    0          0.025260102        0.00026648707          0.050538266         0.0010673147          0.075851358         0.0024050529           0.10121395         0.0042844379           0.12663661         0.0067154237           0.15212285         0.0097258135           0.17766611          0.013410471           0.20325421          0.018125888           0.22888157          0.025034744           0.25454862          0.036678489            0.2802531            0.0571805           0.30598983          0.094119673           0.33175239           0.16445656           0.35753522           0.28401595           0.38333232           0.43981826           0.40913846           0.60584474           0.43494987           0.76205111           0.46076375           0.89140984           0.48657813           0.97889804           0.51239181            1.0148189           0.53820412           0.99742116           0.56401475            0.9287202            0.5898234           0.81662605           0.61562959           0.67318271           0.64143239           0.51896493            0.6672303           0.38076865           0.69302098           0.28392883           0.71880075           0.23065839           0.74456398           0.20253955            0.7703035           0.18713938           0.79601144           0.17852322           0.82168103           0.17322726           0.84730754           0.16938222            0.8728821           0.16632028           0.89839731           0.16386538           0.92385498           0.16197112           0.94926488           0.16062326           0.97464111           0.15981629                    1           0.15954759 
400 0.0021878425 1.0692456e-06 2.6509183e-05 2.9991589e-07  0.032821932    1.0148147   0.85526705    10.951475                    0                    0          0.025452725        0.00026887338          0.050911276         0.0010763074          0.076381047         0.0024235721           0.10186647         0.0043141321           0.12736983         0.0067578735            0.1528904         0.0097832055           0.17842598          0.013486208           0.20397626          0.018237868           0.22954379          0.025234077           0.25513206          0.037034731           0.28074297          0.057771834           0.30637655          0.095085564           0.33203166            0.1659988           0.35770684           0.28590703           0.38339999           0.44154787           0.40910866           0.60714632           0.43483031           0.76287826           0.46056245           0.89182235           0.48630268           0.97902389           0.51204871            1.0148147           0.53779837           0.99742252           0.56354972           0.92883397           0.58930097           0.81692488           0.61505054           0.67369185           0.64079704           0.51963493           0.66653928            0.3814588           0.69227616           0.28447568           0.71800642           0.23104601           0.74372804           0.20281949           0.76943822           0.18733888           0.79513326           0.17866186           0.82080913           0.17332587           0.84646414           0.16945489           0.87209882           0.16637136           0.89771288           0.16389891           0.92330628           0.16199105           0.94888167            0.1606327           0.97444416           0.15981877                    1           0.15954761 
449 0.00099830856 4.1752065e-08 2.1230971e-05 2.3802478e-07  0.032551605    1.0148252   0.85527761    10.954867                    0                    0          0.025489254        0.00026897757          0.050982396         0.0010766522          0.076482962         0.0024242883           0.10199359         0.0043158487             0.127515         0.0067623145           0.15304592          0.009792401            0.1785852          0.013501727           0.20413378          0.018265391           0.22969452          0.025289879           0.25527104           0.03714451           0.28086568          0.057970472           0.30647913          0.095440465            0.3321111           0.16661955           0.35776111           0.28674271           0.38342768           0.44239514           0.40910892           0.60786263           0.43480291           0.76340081           0.46050769           0.89213426           0.48622131           0.97915257           0.51194185            1.0148252           0.53766746           0.99738557           0.56339643             0.928813           0.58912718           0.81696291           0.61485836           0.67380431            0.6405888           0.51980286           0.66631754           0.38163351           0.69204376           0.28461011           0.71776651           0.23113912           0.74348428           0.20288695           0.76919487           0.18738891           0.79489515           0.17869893           0.82058151           0.17335294            0.8462522           0.16947371           0.87190816           0.16638259           0.89755016           0.16390451           0.92317813           0.16199364           0.94879331           0.16063379            0.9743991           0.15981905                    1           0.15954762 
Climbing replica = 21
Step MaxReplicaForce MaxAtomForce GradV0 GradV1 GradVc EBF EBR RDT RD1 PE1 RD2 PE2 ... RDN PEN
449  0.032551605 7.3742807e-05 2.1230971e-05 2.3802479e-07  0.032551605    1.0148252   0.85527761    10.954867                    0                    0          0.025489254        0.00026897757          0.050982396         0.0010766523          0.076482962         0.0024242883           0.10199359         0.0043158487             0.127515         0.0067623145           0.15304592         0.0097924011            0.1785852          0.013501727           0.20413378          0.018265391           0.22969452          0.025289879           0.25527104           0.03714451           0.28086568          0.057970472           0.30647913          0.095440465            0.3321111           0.16661955           0.35776111           0.28674271           0.38342768           0.44239514           0.40910892           0.60786263           0.43480291           0.76340081           0.46050769           0.89213426           0.48622131           0.97915257           0.51194185            1.0148252           0.53766746           0.99738557           0.56339643             0.928813           0.58912718           0.81696291           0.61485836           0.67380431            0.6405888           0.51980286           0.66631754           0.38163351           0.69204376           0.28461011           0.71776651           0.23113912           0.74348428           0.20288695           0.76919487           0.18738891           0.79489515           0.17869893           0.82058151           0.17335294            0.8462522           0.16947371           0.87190816           0.16638259           0.89755016           0.16390451           0.92317813           0.16199364           0.94879331           0.16063379            0.9743991           0.15981905                    1           0.15954762 
