LAMMPS (23 Jun 2022)
Running on 42 partitions of processors
Step MaxReplicaForce MaxAtomForce GradV0 GradV1 GradVc EBF EBR RDT RD1 PE1 RD2 PE2 ... RDN PEN
0    6.0770629    1.1545244 0.0035112142 3.9395343e-05     6.077074     4.810816    5.3802524    14.195402                    0                    0          0.024390244          0.037378029          0.048780488           0.14501059          0.073170732           0.31589628          0.097560976           0.54216498           0.12195122           0.81540761           0.14634146            1.1266844           0.17073171            1.4667458           0.19512195            1.8270102            0.2195122            2.1982985           0.24390244            2.5714853           0.26829268            2.9379176           0.29268293            3.2895329           0.31707317            3.6187013           0.34146341            3.9184117           0.36585366            4.1825319            0.3902439            4.4056804           0.41463415            4.5832111           0.43902439            4.7114536           0.46341463            4.7878642           0.48780488             4.810816           0.51219512             4.779797           0.53658537            4.6952739           0.56097561            4.5587333           0.58536585            4.3726065            0.6097561            4.1404701           0.63414634            3.8667322           0.65853659            3.5566197           0.68292683            3.2159684           0.70731707            2.8512108           0.73170732            2.4693278           0.75609756              2.07785            0.7804878             1.684482           0.80487805            1.2971099           0.82926829           0.92417478           0.85365854           0.57421906           0.87804878           0.25602285           0.90243902         -0.021698625           0.92682927          -0.25061809           0.95121951          -0.42307114           0.97560976          -0.53172363                    1           -0.5694364 
100   0.11701832 0.00087027362 0.00029113381 3.4371636e-06   0.13237076   0.98842031    1.5578495    27.460746                    0                    0          0.017344001        0.00081977947          0.034711684         0.0032868106           0.05213102         0.0074201162          0.069636682            0.0132548          0.087278738          0.020850785           0.10513755          0.030315634           0.12331371          0.041874301           0.14189805          0.056452005           0.16109888          0.081503928           0.18138494           0.17964464           0.20310553           0.48504064           0.22668098           0.81150863           0.25223301           0.98842031           0.27968432           0.95988119           0.30902308           0.84064951            0.3404649           0.81411404           0.37393487           0.75674597           0.40920908           0.66829499           0.44646291           0.66361743           0.48347712           0.47409115           0.52034063           0.46648955           0.55630455           0.64318686           0.59140681           0.68930097           0.62542778           0.55990417           0.65814015           0.55061656           0.68937868           0.55755755           0.71880236           0.54297204           0.74637584           0.35779729           0.77186867         -0.014258402           0.79543902            -0.331791           0.81725556          -0.45757135           0.83768945          -0.49427882           0.85713836          -0.51293999           0.87597063          -0.52711717           0.89431285            -0.538786           0.91230311          -0.54836702           0.93005863          -0.55604985           0.94765743          -0.56194328           0.96515397           -0.5661139           0.98259052          -0.56860208                    1          -0.56942917 
200  0.060755866 0.00036301527 0.00017966114 2.0253404e-06  0.065991052   0.99161705    1.5610453     28.25073                    0                    0          0.017738317        0.00086882384          0.035542736         0.0034897975          0.053480868         0.0079039354          0.071622844          0.014182891          0.090039511          0.022442552           0.10879567          0.032923552           0.12795791          0.046715017           0.14770045          0.074418436           0.16841217           0.21169588           0.19041067           0.55340615           0.21382748            0.8548061           0.23873788           0.99161705           0.26522222           0.92688208           0.29329189           0.82467546           0.32293779            0.8047075           0.35397048           0.74730596           0.38601914           0.66370745           0.41848153           0.66868949           0.45193022           0.66282366           0.48616558           0.49099624           0.52063063           0.42693911           0.55457882            0.5350005           0.58772711           0.69244929           0.61970582           0.63381043           0.65042117           0.54503345           0.67997363           0.54168562           0.70818579           0.54758561           0.73505836           0.53132133           0.76065318            0.3866181           0.78495255          0.049356879           0.80797296          -0.29425211           0.82976514          -0.46005697           0.85048346          -0.50367729           0.87043915          -0.52237686           0.88987936          -0.53577152           0.90889633          -0.54645098           0.92755273          -0.55490976           0.94591845          -0.56134071           0.96406646          -0.56585862            0.9820695          -0.56853952                    1          -0.56942821 
300   0.05100685 0.00012582105 0.0001019944 1.1411519e-06  0.041692486   0.98738841    1.5568162    28.003212                    0                    0          0.019421532         0.0010094029          0.038899558          0.004050596          0.058491223         0.0091619083          0.078255069          0.016419688          0.098251931          0.026025404           0.11855719          0.039244528           0.13932394          0.070410111           0.16083467           0.23840637           0.18330782           0.59163103           0.20676308           0.87111287           0.23116635           0.98738841           0.25651706           0.91791273           0.28276106           0.82191941           0.30987596           0.80247593           0.33778578           0.75976814           0.36649359            0.6856425            0.3959309           0.65350685           0.42584938           0.66677081           0.45618712           0.63279242           0.48655713           0.46483767           0.51689424           0.42294363           0.54697238           0.47801706           0.57664403           0.62994747           0.60587735           0.69890225           0.63461103           0.57826954           0.66278923           0.53792762           0.69036556           0.53636441           0.71711438           0.54117063           0.74296906           0.52334062           0.76795968           0.38924246           0.79207863          0.067042136           0.81529076          -0.28303192           0.83759667          -0.46472827           0.85912198          -0.51195874           0.88006472          -0.53028682           0.90060614          -0.54285925           0.92084445          -0.55262577           0.94084373          -0.56005138           0.96066306          -0.56528282           0.98036183          -0.56839481                    1          -0.56942776 
400   0.35638008  0.013109945 5.8180672e-05 6.6191164e-07  0.098831664   0.97398908    1.5434167    28.016948                    0                    0          0.020556963         0.0011221942          0.041146317         0.0044979476          0.061802074          0.010159998          0.082561006          0.018222027           0.10347255          0.029452648           0.12465419          0.053062417           0.14632941           0.18251369           0.16865169           0.52383437           0.19166623           0.82678715           0.21539656           0.97398908           0.23985847           0.93957287            0.2650455           0.83256664           0.29097363           0.80289826            0.3175984           0.77542301           0.34486342           0.71354279           0.37279731           0.65458634           0.40128871           0.65360961           0.43000712           0.66893772           0.45888434           0.62795001           0.48769909           0.46590147           0.51643499           0.42255321           0.54504447           0.44904323           0.57338074           0.58028387           0.60138016           0.69721199           0.62892592           0.63519245           0.65597805           0.54421716           0.68257167           0.53294475           0.70868675           0.53439043            0.7341672           0.53655676           0.75899823           0.49933059           0.78319383           0.32600062            0.8067603         -0.016467649            0.8297136          -0.34284305            0.8520211          -0.48819726           0.87379449          -0.52417401           0.89520102          -0.53979141           0.91638635          -0.55076745           0.93741924          -0.55900631            0.9583412          -0.56481398           0.97918915          -0.56827658                    1          -0.56942762 
500   0.02221379 6.1395433e-05 3.6783643e-05 4.3163197e-07   0.05160763    0.9787006    1.5481282    28.028404                    0                    0          0.021094027          0.001175748          0.042221346         0.0047145506          0.063414525          0.010665637          0.084707104          0.019271021           0.10615743          0.032921086           0.12793528          0.082403196           0.15023682           0.33142254           0.17313102           0.68652334            0.1966309           0.91467519           0.22074491            0.9787006           0.24548707           0.88109924            0.2708468            0.8101156            0.2967541            0.7962844           0.32312759           0.75185998           0.35008827           0.68187363           0.37759318           0.65192532           0.40543705           0.65437997            0.4335149           0.66868611           0.46170102            0.6339023           0.48971687            0.4748595           0.51749885           0.42308624           0.54501364           0.43798175           0.57234258           0.55089645           0.59939219           0.67723191           0.62617291           0.66920308           0.65263957           0.55671504           0.67876311           0.53345196           0.70456647           0.53068704           0.72990864            0.5343703           0.75472766           0.52307513           0.77901989           0.42196471           0.80277464           0.14141171           0.82598733           -0.2216773           0.84866895          -0.45284426           0.87085894          -0.51801091           0.89268496          -0.53793864           0.91431611          -0.54983146           0.93583133          -0.55850817           0.95726596          -0.56459496            0.9786466          -0.56822176                    1          -0.56942758 
600  0.025283367 0.00012557727 2.1139228e-05 2.6857737e-07  0.098007884   0.96894198    1.5383695    27.688939                    0                    0          0.021929066         0.0012311969           0.04387676         0.0049391062          0.065862817          0.011208512          0.087915688          0.020683703           0.11011681          0.041776661           0.13265748           0.16554869           0.15565868           0.51112608            0.1791536           0.82027646           0.20314354           0.96894198           0.22761063           0.93599012           0.25255239           0.83133782           0.27797867           0.80112539           0.30383787           0.77855444           0.33010428           0.72340304           0.35676503           0.65919916           0.38376661           0.65148311           0.41082743           0.65486027            0.4378726           0.66666314           0.46476344           0.65200501           0.49139628           0.50929415           0.51770924           0.42656405           0.54368456           0.43480657           0.56967544           0.53409097           0.59562361           0.66173655           0.62148431            0.6869796           0.64721031           0.57421334           0.67275863           0.53442609           0.69813791           0.52905408           0.72329946           0.53116824           0.74810859           0.53067659           0.77254217           0.48168497           0.79659907           0.28916626           0.82025967         -0.063056491           0.84351672          -0.37771746           0.86637667          -0.50437533           0.88891033          -0.53526546           0.91125519          -0.54882658            0.9335061          -0.55802509           0.95570085          -0.56439088           0.97785955          -0.56817153                    1          -0.56942756 
700   0.24968546  0.022545622 1.2373893e-05 1.8158757e-07  0.026538325   0.97662317    1.5460507    27.431967                    0                    0          0.022598808         0.0012747807          0.045218276         0.0051257039          0.067880149          0.011731546          0.090622416          0.022875605           0.11355974           0.06327786            0.1368226           0.29358514           0.16045679           0.65690379           0.18447076           0.89827241           0.20886579           0.97662317           0.23363935            0.8896799           0.25877472           0.81178507           0.28420617           0.79717421           0.30983711           0.76265894           0.33571135           0.70262272           0.36177465           0.65435812           0.38791292           0.65139422           0.41394569           0.65430037           0.43980646           0.66365031           0.46564945           0.66184238           0.49147106           0.53963901           0.51723164           0.43151312           0.54292083           0.43354408           0.56852859           0.52697127            0.5940352           0.65269608           0.61943001           0.69390966            0.6446992           0.58676934           0.66983123           0.53573889           0.69485008           0.52886455           0.71976344           0.52877109           0.74442629           0.53040851           0.76882569           0.50558455            0.7929462           0.37190631            0.8167735          0.060889523           0.84031153          -0.29001268           0.86354143          -0.48363641           0.88649925          -0.53214888           0.90928158          -0.54807952           0.93199388          -0.55773493           0.95467638          -0.56427897           0.97734237          -0.56814522                    1          -0.56942755 
800  0.011775623 1.0167477e-05 7.8794002e-06 1.3673412e-07  0.091452708   0.96600481    1.5354324    27.238336                    0                    0          0.023006227          0.001296385          0.046017894         0.0052220952          0.069040395           0.01205465          0.092098675          0.025065648           0.11530182          0.088702043           0.13875488           0.37746328           0.16247451           0.72609641            0.1864621            0.9315195            0.2107374           0.96600481           0.23528685           0.86458986           0.26009144           0.80663757           0.28507419            0.7945456           0.31016863           0.75511347           0.33545947           0.69423118           0.36092589           0.65351313           0.38647169           0.65133441           0.41198621           0.65389617           0.43747444           0.66333657           0.46302473            0.6595301           0.48866161           0.53698881           0.51438067           0.43102322            0.5401785           0.43086615           0.56585795           0.51715633           0.59140438           0.64315242           0.61681725           0.69800263           0.64209254           0.59677904           0.66722734            0.5369647           0.69224996           0.52900375           0.71717779           0.52736625           0.74191963           0.52963041            0.7664266           0.51484653           0.79068562           0.41168715           0.81468676            0.1350455           0.83842317          -0.22715481           0.86189594          -0.46281688           0.88512138          -0.52908763           0.90817035          -0.54759261           0.93115147          -0.55760511           0.95410995          -0.56423981           0.97705777          -0.56813761                    1          -0.56942755 
900  0.011022625 1.7603135e-05 4.546728e-06 1.0522916e-07   0.13707303   0.95525537    1.5246829    27.225172                    0                    0          0.023027217         0.0012902549          0.046052942          0.005215412          0.069078613          0.012219255          0.092138282          0.028389938           0.11535172           0.12714144           0.13878123            0.4581941           0.16243904           0.78433963           0.18632797           0.95525537           0.21043466           0.94780933           0.23476659           0.84383632           0.25932487           0.80298899           0.28408014            0.7893352           0.30902523           0.74459081           0.33420233           0.68090549           0.35963466           0.65264421           0.38516884           0.65134614           0.41076408           0.65401524           0.43643325           0.66419075            0.4621609           0.65580655           0.48791538            0.5273355           0.51370399           0.42852899           0.53953289           0.42750919           0.56524432           0.50199043           0.59080891           0.62816932           0.61622178            0.7009926           0.64147638           0.61195007           0.66656664           0.53931801           0.69151786            0.5293426           0.71635971           0.52639113           0.74104399           0.52868225           0.76551155              0.52166           0.78974987           0.44709395           0.81376646           0.21364067           0.83755951           -0.1484897           0.86112913          -0.42936278           0.88448106          -0.52371999           0.90766452          -0.54684992           0.93077199          -0.55745117           0.95385533          -0.56420178           0.97692973          -0.56813176                    1          -0.56942755 
1000   0.04971387 0.00086139392 2.6201508e-06 8.610348e-08  0.076986129   0.96803671    1.5374643    27.323784                    0                    0          0.023013731         0.0012920488          0.046036357         0.0052526721          0.069083004          0.012653272          0.092213754          0.034744044           0.11553464           0.18167289           0.13909577            0.5404078           0.16291062           0.83469721           0.18696931           0.96803671           0.21125559           0.92680119           0.23576705            0.8280022           0.26051561            0.8003095           0.28547029           0.78157651            0.3106383           0.73230879           0.33602585           0.66857535           0.36163226           0.65225181           0.38727926           0.65138697           0.41294755           0.65423134           0.43863415           0.66447662           0.46430888           0.65609075           0.48994766           0.52776775           0.51554856           0.42851398            0.5411109           0.42571544           0.56659806           0.48897625           0.59196721           0.61313337           0.61720559           0.70001876           0.64229129           0.62983788           0.66721256           0.54331761           0.69198624           0.52979115           0.71665265           0.52606451           0.74119976           0.52771241           0.76556416           0.52497075           0.78972682           0.47122524           0.81369025            0.2755567           0.83745205         -0.076064778           0.86101516          -0.39052147            0.8843854          -0.51663523           0.90759633          -0.54590226           0.93072399          -0.55728127           0.95382363          -0.56416413           0.97691375           -0.5681268                    1          -0.56942756 
1100 0.0079782888 6.6531564e-06 1.6951257e-06 7.5319671e-08  0.028685144   0.97318664    1.5426142    27.356986                    0                    0          0.023176734         0.0013100342          0.046365395           0.00535814          0.069585364          0.013351804          0.092900732          0.042836486           0.11639622           0.23450968             0.140111           0.60192137           0.16405303           0.86787656           0.18821924           0.97318664           0.21261557           0.90825509           0.23723764           0.81870732           0.26207778           0.79884674           0.28709463           0.77521217            0.3122953           0.72325581           0.33767122           0.66317111           0.36320073           0.65213652           0.38876143           0.65139405           0.41432355           0.65422396           0.43987376           0.66418724           0.46540418           0.65754778           0.49091325           0.53182458           0.51639346           0.42942061           0.54184152           0.42490057           0.56721214           0.48034701           0.59245934           0.60223175           0.61757392           0.69648955           0.64253425           0.64361538           0.66733336           0.54773422           0.69198139           0.53006958           0.71652734           0.52601526           0.74097625           0.52710327           0.76527291           0.52601817           0.78939708           0.48471811            0.8133442           0.31465772            0.8371123         -0.023849474           0.86070172          -0.35758153           0.88411633          -0.50972446           0.90738221          -0.54496992           0.93056458          -0.55712055           0.95371759          -0.56412796            0.9768607          -0.56812165                    1          -0.56942755 
1200  0.011265474 3.0901319e-05 9.8820487e-07 6.5383631e-08  0.034029719    0.9722441    1.5416717    27.323394                    0                    0          0.023425009         0.0013318401          0.046856487         0.0054951193          0.070309657          0.014405509          0.093840052          0.055514509            0.1175134            0.2962967           0.14135614           0.66175059             0.165372           0.89937845           0.18957797            0.9722441           0.21398062           0.88570219           0.23858044           0.81163395           0.26334195           0.79750783           0.28821867           0.76834328             0.313245           0.71423318           0.33840633           0.65981608           0.36367988           0.65202485           0.38899958           0.65140141           0.41434179            0.6541981           0.43969778           0.66411981           0.46507112           0.65765682           0.49045802           0.53321139            0.5158513           0.42987728           0.54124443            0.4240992           0.56655753           0.46944064           0.59173801           0.58778158           0.61677848           0.68916624           0.64167351           0.65955225           0.66642533           0.55502657           0.69103798            0.5304967           0.71555894            0.5261175           0.74000392           0.52644905            0.7643004           0.52646313           0.78844841            0.4966113           0.81244315           0.35349544            0.8362832          0.034517488           0.85996799          -0.31576679           0.88349739          -0.49953422           0.90689041          -0.54358335           0.93019831          -0.55690032           0.95347411          -0.56408085           0.97673894          -0.56811503                    1          -0.56942755 
1300  0.044438734 0.00070378257 5.7467092e-07 5.7259323e-08  0.081456717   0.96525636    1.5346839    27.258049                    0                    0          0.023540591           0.00133656           0.04708098         0.0055644406          0.070631704          0.015408078          0.094248117          0.069856827           0.11798734           0.34723155           0.14186196           0.70565659           0.16587871           0.92293481            0.1900593           0.96525636           0.21440288           0.86760765           0.23890613             0.807882            0.2635286           0.79620132           0.28823495           0.76206279           0.31308986           0.70596689            0.3380848           0.65781349           0.36318546           0.65189692           0.38834802           0.65143579            0.4135567           0.65430514           0.43880165           0.66443439           0.46406972           0.65700242           0.48934231           0.53266742           0.51461123           0.42999289           0.53986774           0.42355942            0.5650584           0.45967331            0.5901339           0.57338964           0.61509083           0.68104128           0.63994549           0.67120725           0.66469787           0.56268949           0.68934781            0.5310185            0.7139231           0.52627152           0.73843669            0.5258462           0.76283101           0.52659225           0.78708737           0.50512071           0.81120168            0.3843458           0.83517168          0.086609195           0.85899859           -0.2741843           0.88268666          -0.48748831           0.90624837          -0.54185266           0.92972194          -0.55663411            0.9531586          -0.56402359           0.97658166          -0.56810624                    1          -0.56942755 
1400 0.0071160716 4.6057589e-06 3.7450754e-07 5.1365153e-08   0.10726162   0.95816163    1.5275892    27.208918                    0                    0          0.023574064         0.0013347593          0.047147993         0.0056011903          0.070734156          0.016333933          0.094391818          0.082679602           0.11816537           0.38255358           0.14206274           0.73405192           0.16608738           0.93668653           0.19024841           0.95816163           0.21454434            0.8570562           0.23897213           0.80604515           0.26350284           0.79476184           0.28811441           0.75690398           0.31287377           0.69892549           0.33777982             0.656728           0.36277689           0.65180096           0.38783198            0.6514752           0.41293275           0.65442375           0.43806737           0.66465714           0.46321973           0.65693199           0.48837021           0.53343225            0.5135108            0.4304092           0.53863281           0.42330842           0.56370843           0.45410104            0.5886994           0.56415291           0.61360425           0.67585883           0.63843561           0.67712608           0.66319292           0.56772198             0.687875           0.53141729           0.71249937           0.52638307           0.73707478           0.52543658           0.76155133           0.52661958           0.78590107           0.51018644           0.81011944           0.40447161           0.83420467           0.12401033           0.85815686          -0.24194668           0.88197981          -0.47676102           0.90568431          -0.54022093           0.92930208          -0.55637859           0.95288033          -0.56396644           0.97644296          -0.56809653                    1          -0.56942756 
1500 0.0065678929 4.0651586e-06 2.2648302e-07 4.5444899e-08   0.13102064   0.94922262    1.5186502     27.19472                    0                    0          0.023605603          0.001337277           0.04721476         0.0056801829          0.070845381          0.017887715          0.094554387           0.10068891           0.11837129           0.42304101           0.14230293           0.76405451           0.16634957           0.94861902            0.1905074           0.94922262           0.21477763           0.84697956           0.23916858           0.80431948           0.26366634           0.79223758           0.28826459           0.75058848            0.3129949           0.69015905           0.33786731           0.65595529           0.36279349           0.65172018           0.38774992           0.65151799           0.41273334           0.65454038           0.43773742           0.66484667           0.46275135           0.65699636           0.48776266           0.53441139           0.51276801           0.43086012           0.53776294           0.42315019           0.56273342            0.4499377           0.58765007           0.55654329           0.61250954           0.67071149            0.6373142            0.6820943           0.66206186           0.57289302           0.68675009            0.5319008           0.71138614           0.52651368           0.73597531           0.52511968            0.7604793            0.5265976           0.78487164           0.51470266           0.80914711           0.42441525           0.83330979           0.16494449           0.85735957          -0.20383733           0.88129798          -0.46242318           0.90513223          -0.53797472           0.92888751          -0.55602853           0.95260419          -0.56388817           0.97630496          -0.56808271                    1          -0.56942755 
1600  0.011357471 4.0498451e-05 1.4489708e-07 4.0342637e-08   0.12366696   0.95639844     1.525826    27.231918                    0                    0          0.023671563           0.00135041          0.047352014         0.0058217808          0.071065717          0.019900751          0.094864339            0.1208764           0.11877625           0.46189638           0.14281075           0.79022444           0.16696372           0.95639844           0.19121661           0.94061752           0.21557263           0.83904696           0.24003928           0.80296569           0.26460782           0.78935422           0.28927592           0.74508412           0.31405294           0.68305743           0.33894512           0.65562193           0.36386296           0.65169107           0.38878587           0.65153614           0.41371311           0.65458054           0.43864118           0.66486432           0.46356425           0.65726458           0.48847858           0.53539283           0.51338277             0.431208             0.538275           0.42305564           0.56314206           0.44713559           0.58795921           0.55093988           0.61272403            0.6665349           0.63743797           0.68567056           0.66209848           0.57734722           0.68670332           0.53239678           0.71125728           0.52665041           0.73576355           0.52499263            0.7601987           0.52654408           0.78454467           0.51768456           0.80879406           0.43857866           0.83294979           0.19617683           0.85701183          -0.17239229           0.88098224          -0.44902662           0.90486615          -0.53579469           0.92868286           -0.5557011           0.95246581          -0.56381862           0.97623523          -0.56807059                    1          -0.56942755 
1607 0.0048192826 2.2207549e-06 1.4164384e-07 4.0540417e-08   0.12124346   0.95698415    1.5264117     27.23658                    0                    0           0.02368073         0.0013521733          0.047370806         0.0058380207          0.071094839           0.02010714          0.094903282            0.1228495           0.11882603            0.4654148           0.14287139            0.7924664            0.1670347           0.95698415           0.19129746           0.93984544           0.21566211           0.83840499           0.24013659           0.80286158           0.26471195           0.78909822           0.28938645           0.74464219           0.31416739           0.68253324           0.33906044           0.65560304           0.36397727            0.6516901           0.38889733           0.65153664           0.41381988           0.65458039           0.43874154           0.66485702           0.46365715           0.65730178           0.48856384           0.53550395           0.51346029           0.43124205           0.53834482           0.42304745           0.56320372           0.44690063           0.58801231           0.55045709           0.61276811           0.66616435           0.63747277           0.68596624           0.66212425           0.57774496           0.68672064           0.53244376           0.71126635           0.52666311           0.73576439           0.52498709           0.76019237            0.5265375           0.78453217           0.51789558           0.80877725           0.43966796           0.83293091           0.19867653           0.85699359          -0.16980118           0.88096564          -0.44786907           0.90485157           -0.5356032           0.92867151           -0.5556729           0.95245813          -0.56381286           0.97623135          -0.56806961                    1          -0.56942756 
Climbing replica = 8
Step MaxReplicaForce MaxAtomForce GradV0 GradV1 GradVc EBF EBR RDT RD1 PE1 RD2 PE2 ... RDN PEN
1607   0.12124346 0.0020559145 1.4164387e-07 4.054045e-08   0.12124346   0.95698415    1.5264117     27.23658                    0                    0           0.02368073         0.0013521732          0.047370806         0.0058380204          0.071094839           0.02010714          0.094903282            0.1228495           0.11882603            0.4654148           0.14287139            0.7924664            0.1670347           0.95698415           0.19129746           0.93984544           0.21566211           0.83840499           0.24013659           0.80286158           0.26471195           0.78909822           0.28938645           0.74464219           0.31416739           0.68253324           0.33906044           0.65560304           0.36397727            0.6516901           0.38889733           0.65153664           0.41381988           0.65458039           0.43874154           0.66485702           0.46365715           0.65730178           0.48856384           0.53550394           0.51346029           0.43124205           0.53834482           0.42304745           0.56320372           0.44690063           0.58801231           0.55045709           0.61276811           0.66616435           0.63747277           0.68596624           0.66212425           0.57774496           0.68672064           0.53244376           0.71126635           0.52666311           0.73576439           0.52498709           0.76019237            0.5265375           0.78453217           0.51789558           0.80877725           0.43966796           0.83293091           0.19867653           0.85699359          -0.16980118           0.88096564          -0.44786907           0.90485157           -0.5356032           0.92867151           -0.5556729           0.95245813          -0.56381286           0.97623135          -0.56806961                    1          -0.56942756 
