Dimond Silicon

      18432 atoms
      0 bonds
      0 angles
      0 dihedrals
      0 impropers

      1 atom types
      0 bond types
      0 angle types
      0 dihedral types
      0 improper types

      0 206.933 xlo xhi
      0 88.7746 ylo yhi
      0 19.9121 zlo zhi

Atoms

      1   1             7.5582485183        23.0601788706        1.26123838763   0  0  0
      2   1             6.1246787742        25.0895662266        1.27463723972   0  0  0
      3   1             8.2799894357        25.0860152426         2.5069533021   0  0  0
      4   1             4.6811141662        21.0580453168         1.2716663544   0  0  0
      5   1             6.8364869076        21.0544055582         2.5040461355   0  0  0
      6   1             3.2475444221        23.0673696132        1.28561478045   0  0  0
      7   1             5.4028964702        23.0637298546         2.5179049571   0  0  0
      8   1             7.5582485183        23.0601788706          3.750244914   0  0  0
      9   1            1.81401399527        25.0967569692        1.29919284144   0  0  0
      10   1             3.9693474194        25.0931172106         2.5313854488   0  0  0
      11   1             6.1246787742        25.0895662266         3.7636457573   0  0  0
      12   1             8.2799894357        25.0860152426         4.9959658021   0  0  0
      13   1            0.37033971278        21.0652360594        1.29613434288   0  0  0
      14   1             2.5257207315        21.0615963008         2.5283787217   0  0  0
      15   1             4.6811141662        21.0580453168         3.7606788544   0  0  0
      16   1             6.8364869076        21.0544055582         4.9930586355   0  0  0
      17   1            1.09217581936        23.0710093718         2.5423968401   0  0  0
      18   1             3.2475444221        23.0673696132         3.7746372365   0  0  0
      19   1             5.4028964702        23.0637298546         5.0069174571   0  0  0
      20   1            1.81401399527        25.0967569692         3.7881973766   0  0  0
      21   1             3.9693474194        25.0931172106         5.0203979488   0  0  0
      22   1            0.37033971278        21.0652360594         3.7851508253   0  0  0
      23   1             2.5257207315        21.0615963008         5.0173912217   0  0  0
      24   1            1.09217581936        23.0710093718         5.0314093401   0  0  0
      25   1             7.5582485183        23.0601788706          6.239257414   0  0  0
      26   1             6.1246787742        25.0895662266         6.2526582573   0  0  0
      27   1             8.2799894357        25.0860152426         7.4849783021   0  0  0
      28   1             4.6811141662        21.0580453168         6.2496913544   0  0  0
      29   1             6.8364869076        21.0544055582         7.4820711355   0  0  0
      30   1             3.2475444221        23.0673696132         6.2636497365   0  0  0
      31   1             5.4028964702        23.0637298546         7.4959299571   0  0  0
      32   1             7.5582485183        23.0601788706          8.728269914   0  0  0
      33   1            1.81401399527        25.0967569692         6.2772098766   0  0  0
      34   1             3.9693474194        25.0931172106         7.5094104488   0  0  0
      35   1             6.1246787742        25.0895662266         8.7416707573   0  0  0
      36   1             8.2799894357        25.0860152426         9.9739908021   0  0  0
      37   1            0.37033971278        21.0652360594         6.2741633253   0  0  0
      38   1             2.5257207315        21.0615963008         7.5064037217   0  0  0
      39   1             4.6811141662        21.0580453168         8.7387038544   0  0  0
      40   1             6.8364869076        21.0544055582         9.9710836355   0  0  0
      41   1            1.09217581936        23.0710093718         7.5204218401   0  0  0
      42   1             3.2475444221        23.0673696132         8.7526622365   0  0  0
      43   1             5.4028964702        23.0637298546         9.9849424571   0  0  0
      44   1            1.81401399527        25.0967569692         8.7662223766   0  0  0
      45   1             3.9693474194        25.0931172106         9.9984229488   0  0  0
      46   1            0.37033971278        21.0652360594         8.7631758253   0  0  0
      47   1             2.5257207315        21.0615963008         9.9954162217   0  0  0
      48   1            1.09217581936        23.0710093718        10.0094343401   0  0  0
      49   1             7.5582485183        23.0601788706         11.217282414   0  0  0
      50   1             6.1246787742        25.0895662266        11.2306832573   0  0  0
      51   1             8.2799894357        25.0860152426        12.4630033021   0  0  0
      52   1             4.6811141662        21.0580453168        11.2277163544   0  0  0
      53   1             6.8364869076        21.0544055582        12.4600961355   0  0  0
      54   1             3.2475444221        23.0673696132        11.2416747365   0  0  0
      55   1             5.4028964702        23.0637298546        12.4739549571   0  0  0
      56   1             7.5582485183        23.0601788706         13.706294914   0  0  0
      57   1            1.81401399527        25.0967569692        11.2552348766   0  0  0
      58   1             3.9693474194        25.0931172106        12.4874354488   0  0  0
      59   1             6.1246787742        25.0895662266        13.7196957573   0  0  0
      60   1             8.2799894357        25.0860152426        14.9520158021   0  0  0
      61   1            0.37033971278        21.0652360594        11.2521883253   0  0  0
      62   1             2.5257207315        21.0615963008        12.4844287217   0  0  0
      63   1             4.6811141662        21.0580453168        13.7167288544   0  0  0
      64   1             6.8364869076        21.0544055582        14.9491086355   0  0  0
      65   1            1.09217581936        23.0710093718        12.4984468401   0  0  0
      66   1             3.2475444221        23.0673696132        13.7306872365   0  0  0
      67   1             5.4028964702        23.0637298546        14.9629674571   0  0  0
      68   1            1.81401399527        25.0967569692        13.7442473766   0  0  0
      69   1             3.9693474194        25.0931172106        14.9764479488   0  0  0
      70   1            0.37033971278        21.0652360594        13.7412008253   0  0  0
      71   1             2.5257207315        21.0615963008        14.9734412217   0  0  0
      72   1            1.09217581936        23.0710093718        14.9874593401   0  0  0
      73   1             7.5582485183        23.0601788706         16.195307414   0  0  0
      74   1             6.1246787742        25.0895662266        16.2087082573   0  0  0
      75   1             8.2799894357        25.0860152426        17.4410283021   0  0  0
      76   1             4.6811141662        21.0580453168        16.2057413544   0  0  0
      77   1             6.8364869076        21.0544055582        17.4381211355   0  0  0
      78   1             3.2475444221        23.0673696132        16.2196997365   0  0  0
      79   1             5.4028964702        23.0637298546        17.4519799571   0  0  0
      80   1             7.5582485183        23.0601788706         18.684319914   0  0  0
      81   1            1.81401399527        25.0967569692        16.2332598766   0  0  0
      82   1             3.9693474194        25.0931172106        17.4654604488   0  0  0
      83   1             6.1246787742        25.0895662266        18.6977207573   0  0  0
      84   1             8.2799894357        25.0860152426      0.0179467359058   0  0  0
      85   1            0.37033971278        21.0652360594        16.2302133253   0  0  0
      86   1             2.5257207315        21.0615963008        17.4624537217   0  0  0
      87   1             4.6811141662        21.0580453168        18.6947538544   0  0  0
      88   1             6.8364869076        21.0544055582      0.0150289362444   0  0  0
      89   1            1.09217581936        23.0710093718        17.4764718401   0  0  0
      90   1             3.2475444221        23.0673696132        18.7087122365   0  0  0
      91   1             5.4028964702        23.0637298546       0.028886284349   0  0  0
      92   1            1.81401399527        25.0967569692        18.7222723766   0  0  0
      93   1             3.9693474194        25.0931172106       0.042381710124   0  0  0
      94   1            0.37033971278        21.0652360594        18.7192258253   0  0  0
      95   1             2.5257207315        21.0615963008       0.039363633127   0  0  0
      96   1            1.09217581936        23.0710093718       0.053391110214   0  0  0
      97   1              7.568160609         29.151803148        1.27700478841   0  0  0
      98   1             6.1346115582          31.18651698        1.29051116584   0  0  0
      99   1             8.2898601398         31.182965996         2.5226241248   0  0  0
      100   1             4.6911297234        27.1242800586        1.28813166989   0  0  0
      101   1             6.8464196916           27.1206403         2.5203541454   0  0  0
      102   1             3.2576220592        29.1589938906        1.30171968693   0  0  0
      103   1             5.4128913341         29.155354132         2.5338545492   0  0  0
      104   1              7.568160609         29.151803148         3.7660152972   0  0  0
      105   1            1.82413922696        31.1937077226        1.31540527326   0  0  0
      106   1             3.9793836699        31.1901567386         2.5474545135   0  0  0
      107   1             6.1346115582          31.18651698          3.779515701   0  0  0
      108   1             8.2898601398         31.182965996         5.0116366248   0  0  0
      109   1            0.38053116303        27.1314708012        1.31285254204   0  0  0
      110   1             2.5358397552        27.1278310426         2.5449854131   0  0  0
      111   1             4.6911297234        27.1242800586         3.7771461611   0  0  0
      112   1             6.8464196916           27.1206403         5.0093666454   0  0  0
      113   1            1.10235071497        29.1626336492         2.5586451137   0  0  0
      114   1             3.2576220592        29.1589938906         3.7907262133   0  0  0
      115   1             5.4128913341         29.155354132         5.0228670492   0  0  0
      116   1            1.82413922696        31.1937077226         3.8044257381   0  0  0
      117   1             3.9793836699        31.1901567386         5.0364670135   0  0  0
      118   1            0.38053116303        27.1314708012         3.8018570772   0  0  0
      119   1             2.5358397552        27.1278310426         5.0339979131   0  0  0
      120   1            1.10235071497        29.1626336492         5.0476576137   0  0  0
      121   1              7.568160609         29.151803148         6.2550277972   0  0  0
      122   1             6.1346115582          31.18651698          6.268528201   0  0  0
      123   1             8.2898601398         31.182965996         7.5006491248   0  0  0
      124   1             4.6911297234        27.1242800586         6.2661586611   0  0  0
      125   1             6.8464196916           27.1206403         7.4983791454   0  0  0
      126   1             3.2576220592        29.1589938906         6.2797387133   0  0  0
      127   1             5.4128913341         29.155354132         7.5118795492   0  0  0
      128   1              7.568160609         29.151803148         8.7440402972   0  0  0
      129   1            1.82413922696        31.1937077226         6.2934382381   0  0  0
      130   1             3.9793836699        31.1901567386         7.5254795135   0  0  0
      131   1             6.1346115582          31.18651698          8.757540701   0  0  0
      132   1             8.2898601398         31.182965996         9.9896616248   0  0  0
      133   1            0.38053116303        27.1314708012         6.2908695772   0  0  0
      134   1             2.5358397552        27.1278310426         7.5230104131   0  0  0
      135   1             4.6911297234        27.1242800586         8.7551711611   0  0  0
      136   1             6.8464196916           27.1206403         9.9873916454   0  0  0
      137   1            1.10235071497        29.1626336492         7.5366701137   0  0  0
      138   1             3.2576220592        29.1589938906         8.7687512133   0  0  0
      139   1             5.4128913341         29.155354132        10.0008920492   0  0  0
      140   1            1.82413922696        31.1937077226         8.7824507381   0  0  0
      141   1             3.9793836699        31.1901567386        10.0144920135   0  0  0
      142   1            0.38053116303        27.1314708012         8.7798820772   0  0  0
      143   1             2.5358397552        27.1278310426        10.0120229131   0  0  0
      144   1            1.10235071497        29.1626336492        10.0256826137   0  0  0
      145   1              7.568160609         29.151803148        11.2330527972   0  0  0
      146   1             6.1346115582          31.18651698         11.246553201   0  0  0
      147   1             8.2898601398         31.182965996        12.4786741248   0  0  0
      148   1             4.6911297234        27.1242800586        11.2441836611   0  0  0
      149   1             6.8464196916           27.1206403        12.4764041454   0  0  0
      150   1             3.2576220592        29.1589938906        11.2577637133   0  0  0
      151   1             5.4128913341         29.155354132        12.4899045492   0  0  0
      152   1              7.568160609         29.151803148        13.7220652972   0  0  0
      153   1            1.82413922696        31.1937077226        11.2714632381   0  0  0
      154   1             3.9793836699        31.1901567386        12.5035045135   0  0  0
      155   1             6.1346115582          31.18651698         13.735565701   0  0  0
      156   1             8.2898601398         31.182965996        14.9676866248   0  0  0
      157   1            0.38053116303        27.1314708012        11.2688945772   0  0  0
      158   1             2.5358397552        27.1278310426        12.5010354131   0  0  0
      159   1             4.6911297234        27.1242800586        13.7331961611   0  0  0
      160   1             6.8464196916           27.1206403        14.9654166454   0  0  0
      161   1            1.10235071497        29.1626336492        12.5146951137   0  0  0
      162   1             3.2576220592        29.1589938906        13.7467762133   0  0  0
      163   1             5.4128913341         29.155354132        14.9789170492   0  0  0
      164   1            1.82413922696        31.1937077226        13.7604757381   0  0  0
      165   1             3.9793836699        31.1901567386        14.9925170135   0  0  0
      166   1            0.38053116303        27.1314708012        13.7579070772   0  0  0
      167   1             2.5358397552        27.1278310426        14.9900479131   0  0  0
      168   1            1.10235071497        29.1626336492        15.0037076137   0  0  0
      169   1              7.568160609         29.151803148        16.2110777972   0  0  0
      170   1             6.1346115582          31.18651698         16.224578201   0  0  0
      171   1             8.2898601398         31.182965996        17.4566991248   0  0  0
      172   1             4.6911297234        27.1242800586        16.2222086611   0  0  0
      173   1             6.8464196916           27.1206403        17.4544291454   0  0  0
      174   1             3.2576220592        29.1589938906        16.2357887133   0  0  0
      175   1             5.4128913341         29.155354132        17.4679295492   0  0  0
      176   1              7.568160609         29.151803148        18.7000902972   0  0  0
      177   1            1.82413922696        31.1937077226        16.2494882381   0  0  0
      178   1             3.9793836699        31.1901567386        17.4815295135   0  0  0
      179   1             6.1346115582          31.18651698         18.713590701   0  0  0
      180   1             8.2898601398         31.182965996       0.033616801946   0  0  0
      181   1            0.38053116303        27.1314708012        16.2469195772   0  0  0
      182   1             2.5358397552        27.1278310426        17.4790604131   0  0  0
      183   1             4.6911297234        27.1242800586        18.7112211611   0  0  0
      184   1             6.8464196916           27.1206403        0.03133766298   0  0  0
      185   1            1.10235071497        29.1626336492        17.4927201137   0  0  0
      186   1             3.2576220592        29.1589938906        18.7248012133   0  0  0
      187   1             5.4128913341         29.155354132       0.044833088755   0  0  0
      188   1            1.82413922696        31.1937077226        18.7385007381   0  0  0
      189   1             3.9793836699        31.1901567386       0.058434646023   0  0  0
      190   1            0.38053116303        27.1314708012        18.7359320772   0  0  0
      191   1             2.5358397552        27.1278310426        0.05596494826   0  0  0
      192   1            1.10235071497        29.1626336492       0.069633609305   0  0  0
      193   1             7.5779899265         35.248842676        1.29277517161   0  0  0
      194   1             6.1444822623        37.2836452826         1.3064926173   0  0  0
      195   1             8.2996273774        37.2800942986          2.538394508   0  0  0
      196   1              4.701103894        33.2213195866        1.30413900708   0  0  0
      197   1              6.856311089         33.217679828         2.5361643528   0  0  0
      198   1             3.2676376164        35.2560334186        1.31788831213   0  0  0
      199   1             5.4228034248        35.2524824346         2.5498240534   0  0  0
      200   1             7.5779899265         35.248842676         3.7817856804   0  0  0
      201   1            1.83418168545        37.2908360252         1.3317610722   0  0  0
      202   1             3.9893371472        37.2871962666         2.5636231387   0  0  0
      203   1             6.1444822623        37.2836452826         3.7955051173   0  0  0
      204   1             8.2996273774        37.2800942986          5.027407008   0  0  0
      205   1            0.39068743467        33.2285103292        1.32919042009   0  0  0
      206   1              2.545896699        33.2248705706         2.5611540383   0  0  0
      207   1              4.701103894        33.2213195866         3.7931554895   0  0  0
      208   1              6.856311089         33.217679828         5.0251768528   0  0  0
      209   1            1.11244904537        35.2596731772         2.5749929478   0  0  0
      210   1             3.2676376164        35.2560334186         3.8068948385   0  0  0
      211   1             5.4228034248        35.2524824346         5.0388365534   0  0  0
      212   1            1.83418168545        37.2908360252         3.8207735722   0  0  0
      213   1             3.9893371472        37.2871962666         5.0526356387   0  0  0
      214   1            0.39068743467        33.2285103292         3.8182049113   0  0  0
      215   1              2.545896699        33.2248705706         5.0501665383   0  0  0
      216   1            1.11244904537        35.2596731772         5.0640054478   0  0  0
      217   1             7.5779899265         35.248842676         6.2707981804   0  0  0
      218   1             6.1444822623        37.2836452826         6.2845176173   0  0  0
      219   1             8.2996273774        37.2800942986          7.516419508   0  0  0
      220   1              4.701103894        33.2213195866         6.2821679895   0  0  0
      221   1              6.856311089         33.217679828         7.5141893528   0  0  0
      222   1             3.2676376164        35.2560334186         6.2959073385   0  0  0
      223   1             5.4228034248        35.2524824346         7.5278490534   0  0  0
      224   1             7.5779899265         35.248842676         8.7598106804   0  0  0
      225   1            1.83418168545        37.2908360252         6.3097860722   0  0  0
      226   1             3.9893371472        37.2871962666         7.5416481387   0  0  0
      227   1             6.1444822623        37.2836452826         8.7735301173   0  0  0
      228   1             8.2996273774        37.2800942986         10.005432008   0  0  0
      229   1            0.39068743467        33.2285103292         6.3072174113   0  0  0
      230   1              2.545896699        33.2248705706         7.5391790383   0  0  0
      231   1              4.701103894        33.2213195866         8.7711804895   0  0  0
      232   1              6.856311089         33.217679828        10.0032018528   0  0  0
      233   1            1.11244904537        35.2596731772         7.5530179478   0  0  0
      234   1             3.2676376164        35.2560334186         8.7849198385   0  0  0
      235   1             5.4228034248        35.2524824346        10.0168615534   0  0  0
      236   1            1.83418168545        37.2908360252         8.7987985722   0  0  0
      237   1             3.9893371472        37.2871962666        10.0306606387   0  0  0
      238   1            0.39068743467        33.2285103292         8.7962299113   0  0  0
      239   1              2.545896699        33.2248705706        10.0281915383   0  0  0
      240   1            1.11244904537        35.2596731772        10.0420304478   0  0  0
      241   1             7.5779899265         35.248842676        11.2488231804   0  0  0
      242   1             6.1444822623        37.2836452826        11.2625426173   0  0  0
      243   1             8.2996273774        37.2800942986         12.494444508   0  0  0
      244   1              4.701103894        33.2213195866        11.2601929895   0  0  0
      245   1              6.856311089         33.217679828        12.4922143528   0  0  0
      246   1             3.2676376164        35.2560334186        11.2739323385   0  0  0
      247   1             5.4228034248        35.2524824346        12.5058740534   0  0  0
      248   1             7.5779899265         35.248842676        13.7378356804   0  0  0
      249   1            1.83418168545        37.2908360252        11.2878110722   0  0  0
      250   1             3.9893371472        37.2871962666        12.5196731387   0  0  0
      251   1             6.1444822623        37.2836452826        13.7515551173   0  0  0
      252   1             8.2996273774        37.2800942986         14.983457008   0  0  0
      253   1            0.39068743467        33.2285103292        11.2852424113   0  0  0
      254   1              2.545896699        33.2248705706        12.5172040383   0  0  0
      255   1              4.701103894        33.2213195866        13.7492054895   0  0  0
      256   1              6.856311089         33.217679828        14.9812268528   0  0  0
      257   1            1.11244904537        35.2596731772        12.5310429478   0  0  0
      258   1             3.2676376164        35.2560334186        13.7629448385   0  0  0
      259   1             5.4228034248        35.2524824346        14.9948865534   0  0  0
      260   1            1.83418168545        37.2908360252        13.7768235722   0  0  0
      261   1             3.9893371472        37.2871962666        15.0086856387   0  0  0
      262   1            0.39068743467        33.2285103292        13.7742549113   0  0  0
      263   1              2.545896699        33.2248705706        15.0062165383   0  0  0
      264   1            1.11244904537        35.2596731772        15.0200554478   0  0  0
      265   1             7.5779899265         35.248842676        16.2268481804   0  0  0
      266   1             6.1444822623        37.2836452826        16.2405676173   0  0  0
      267   1             8.2996273774        37.2800942986         17.472469508   0  0  0
      268   1              4.701103894        33.2213195866        16.2382179895   0  0  0
      269   1              6.856311089         33.217679828        17.4702393528   0  0  0
      270   1             3.2676376164        35.2560334186        16.2519573385   0  0  0
      271   1             5.4228034248        35.2524824346        17.4838990534   0  0  0
      272   1             7.5779899265         35.248842676        18.7158606804   0  0  0
      273   1            1.83418168545        37.2908360252        16.2658360722   0  0  0
      274   1             3.9893371472        37.2871962666        17.4976981387   0  0  0
      275   1             6.1444822623        37.2836452826        18.7295801173   0  0  0
      276   1             8.2996273774        37.2800942986       0.049377428217   0  0  0
      277   1            0.39068743467        33.2285103292        16.2632674113   0  0  0
      278   1              2.545896699        33.2248705706        17.4952290383   0  0  0
      279   1              4.701103894        33.2213195866        18.7272304895   0  0  0
      280   1              6.856311089         33.217679828       0.047148069501   0  0  0
      281   1            1.11244904537        35.2596731772        17.5090679478   0  0  0
      282   1             3.2676376164        35.2560334186        18.7409698385   0  0  0
      283   1             5.4228034248        35.2524824346       0.060814341094   0  0  0
      284   1            1.83418168545        37.2908360252        18.7548485722   0  0  0
      285   1             3.9893371472        37.2871962666       0.074613227273   0  0  0
      286   1            0.39068743467        33.2285103292        18.7522799113   0  0  0
      287   1              2.545896699        33.2248705706       0.072146317204   0  0  0
      288   1            1.11244904537        35.2596731772        0.08597049175   0  0  0
      289   1             7.5877364708        41.3459709786        1.30882830663   0  0  0
      290   1             6.1542701932        43.3807735852        1.32282253051   0  0  0
      291   1             8.3093118418        43.3772226012         2.5545033969   0  0  0
      292   1             4.7109952914        39.3183591146        1.32034745648   0  0  0
      293   1             6.8661197132        39.3148081306         2.5521736812   0  0  0
      294   1             3.2775497071        41.3531617212        1.33433968915   0  0  0
      295   1             5.4326534356        41.3496107372         2.5660922391   0  0  0
      296   1             7.5877364708        41.3459709786          3.797834833   0  0  0
      297   1            1.84414757873        43.3879643278        1.34845736805   0  0  0
      298   1             3.9992078513        43.3843245692         2.5801501817   0  0  0
      299   1             6.1542701932        43.3807735852         3.8118330393   0  0  0
      300   1             8.3093118418        43.3772226012         5.0435158969   0  0  0
      301   1            0.40076507177        39.3256386318        1.34575529608   0  0  0
      302   1             2.5558915629        39.3219988732         2.5775616087   0  0  0
      303   1             4.7109952914        39.3183591146         3.8093639389   0  0  0
      304   1             6.8661197132        39.3148081306         5.0411861812   0  0  0
      305   1            1.12247081056        41.3568014798         2.5915996392   0  0  0
      306   1             3.2775497071        41.3531617212         3.8233422331   0  0  0
      307   1             5.4326534356        41.3496107372         5.0551047391   0  0  0
      308   1            1.84414757873        43.3879643278         3.8374798241   0  0  0
      309   1             3.9992078513        43.3843245692         5.0691626817   0  0  0
      310   1            0.40076507177        39.3256386318         3.8347717785   0  0  0
      311   1             2.5558915629        39.3219988732         5.0665741087   0  0  0
      312   1            1.12247081056        41.3568014798         5.0806121392   0  0  0
      313   1             7.5877364708        41.3459709786          6.286847333   0  0  0
      314   1             6.1542701932        43.3807735852         6.3008455393   0  0  0
      315   1             8.3093118418        43.3772226012         7.5325283969   0  0  0
      316   1             4.7109952914        39.3183591146         6.2983764389   0  0  0
      317   1             6.8661197132        39.3148081306         7.5301986812   0  0  0
      318   1             3.2775497071        41.3531617212         6.3123547331   0  0  0
      319   1             5.4326534356        41.3496107372         7.5441172391   0  0  0
      320   1             7.5877364708        41.3459709786          8.775859833   0  0  0
      321   1            1.84414757873        43.3879643278         6.3264923241   0  0  0
      322   1             3.9992078513        43.3843245692         7.5581751817   0  0  0
      323   1             6.1542701932        43.3807735852         8.7898580393   0  0  0
      324   1             8.3093118418        43.3772226012        10.0215408969   0  0  0
      325   1            0.40076507177        39.3256386318         6.3237842785   0  0  0
      326   1             2.5558915629        39.3219988732         7.5555866087   0  0  0
      327   1             4.7109952914        39.3183591146         8.7873889389   0  0  0