Lammps data input converted from CFG format

  12150 atoms
      0 bonds
      0 angles
      0 dihedrals
      0 impropers

      4 atom types
      0 bond types
      0 angle types
      0 dihedral types
      0 improper types

      0   25.202999999999999 xlo xhi
      0  269.110000000000014 ylo yhi
      0   71.319000000000003 zlo zhi
         1.026360000000000   -1.393300000000000    0.035625100000000 xy xz yz

Atoms

           1     3      2.300185890324747   78.334637610617463    0.565755367576236  0  0  0
           2     1      2.155290908475207   80.625691432071150    4.592411663555787  0  0  0
           3     3      3.206134316937364   78.345031922720580    5.839107974578516  0  0  0
           4     1      3.146543297803405   80.626602025834529    1.937146228153589  0  0  0
           5     2      4.170942870214542   78.429618180817641    3.227905272496227  0  0  0
           6     1      4.007351293122211   80.615864440503273    7.264730625656410  0  0  0
           7     3      2.044323218645290   78.345667977675532    8.609780524833162  0  0  0
           8     3      1.997378885853570   80.614189955247355   12.584666680464220  0  0  0
           9     4      2.895210322496516   78.421813899850463   13.957459512362931  0  0  0
          10     4      3.030445127266167   80.592230340968200    9.897099411075834  0  0  0
          11     1      3.921244379015079   78.332363539098537   11.240158751380974  0  0  0
          12     3      3.813067533803355   80.664943999967917   15.194788081154460  0  0  0
          13     2      1.956027552285740   78.459997583963442   16.515059294378442  0  0  0
          14     2      1.883903468584494   80.647977218503257   20.436791581501236  0  0  0
          15     4      2.805584328967710   78.420232383730337   21.668185273802450  0  0  0
          16     2      2.838778566292380   80.701431890094156   17.836745806835513  0  0  0
          17     4      3.734362501464382   78.462126072373181   19.116556118619112  0  0  0
          18     3      3.667166814138170   80.630785310749047   23.078957780375728  0  0  0
          19     1      1.818900740474833   78.281055586233236   24.356528286253369  0  0  0
          20     2      1.675296678088405   80.607837694475805   28.458402634702804  0  0  0
          21     3      2.593472993579687   78.378631555906040   29.835625807918770  0  0  0
          22     1      2.673970030210589   80.585160529713747   25.813938314237262  0  0  0
          23     1      3.638524269360127   78.286794959560694   27.052943925595091  0  0  0
          24     1      3.505157476856251   80.662727397501627   31.104854585586320  0  0  0
          25     4      1.601961084521494   78.388790538763118   32.514993756317622  0  0  0
          26     1      1.518899703978920   80.682475077452608   36.418299285306261  0  0  0
          27     2      2.413647503643988   78.460254790173423   37.715817829564919  0  0  0
          28     3      2.506957143287937   80.671918453148166   33.767227946912165  0  0  0
          29     4      3.407917224787107   78.415342928030938   35.097390830036332  0  0  0
          30     3      3.297628009012119   80.707295820491922   39.042636323156017  0  0  0
          31     4      1.416969124939668   78.499336609425427   40.409570087973108  0  0  0
          32     4      1.304391932009896   80.712555890312657   44.309614989487486  0  0  0
          33     4      2.211440107018250   78.502589676523982   45.609841769197061  0  0  0
          34     2      2.315422443214979   80.705523061252308   41.680383804154999  0  0  0
          35     2      3.175571607402879   78.485772859904301   43.034263777653486  0  0  0
          36     1      3.167528435495348   80.719510262951331   46.950927347201350  0  0  0
          37     4      1.265787062425803   78.530017288029896   48.255537617943716  0  0  0
          38     3      1.168704370420812   80.756484991931458   52.207363290688015  0  0  0
          39     3      2.023140855394336   78.434734330714662   53.592434286145576  0  0  0
          40     4      2.128739299432834   80.758223606458955   49.581311185539306  0  0  0
          41     3      3.121058633014199   78.467325367309428   50.802681381572953  0  0  0
          42     3      3.013494929009759   80.741624154323844   54.848345108983565  0  0  0
          43     2      1.103453001250449   78.509965717792781   56.188001769264268  0  0  0
          44     1      1.060318647608947   80.724152209760121   60.081321569917613  0  0  0
          45     4      1.986827230944680   78.499180638097343   61.434392047966270  0  0  0
          46     4      2.047323243919579   80.702526460910590   57.463024849319254  0  0  0
          47     1      2.957398493689490   78.369517747447276   58.769841660412261  0  0  0
          48     2      2.875213586686764   80.672709467984262   62.746655704394072  0  0  0
          49     3      0.939041636592021   78.405196774725539   64.069782061318421  0  0  0
          50     4      0.908920866347363   80.645614729060398   68.000205549274952  0  0  0
          51     2      1.832488021433157   78.485305888906808   69.315839117781806  0  0  0
          52     2      1.897315624165620   80.667524384115765   65.373689841064589  0  0  0
          53     1      2.743147964388220   78.424974307786172   66.706586024096012  0  0  0
          54     4      2.764333283256209   80.627728113538097   70.615836354670321  0  0  0
          55     2      2.192450812696590   82.936121353067747    0.656337299770832  0  0  0
          56     3      2.115695777739623   85.214972963013807    4.584847814127324  0  0  0
          57     1      3.087188190262467   82.927514178944236    5.970055805538770  0  0  0
          58     1      3.140410378626952   85.199718969844596    1.954948551403904  0  0  0
          59     3      4.058022395226968   82.907752990578942    3.300167108642223  0  0  0
          60     4      3.982373541212352   85.182646156517208    7.270139449674006  0  0  0
          61     4      2.126422446299748   82.901661296976059    8.595974423299452  0  0  0
          62     4      2.011712867452755   85.227732860777110   12.563375954430185  0  0  0
          63     2      2.922882110517308   82.964637671786420   13.883669199716563  0  0  0
          64     1      2.972212719906777   85.219337640267256    9.885011332009531  0  0  0
          65     3      3.907094974729062   82.933918697519800   11.240777339236264  0  0  0
          66     1      3.820696387121254   85.231820087413368   15.191978634938177  0  0  0
          67     4      1.951036090662308   82.954160148269935   16.495658185754191  0  0  0
          68     4      1.884321055818678   85.251282337536864   20.454570591547476  0  0  0
          69     2      2.772969146920236   82.953343527484620   21.743901275991647  0  0  0
          70     4      2.846345646649558   85.210074316668752   17.833687745355189  0  0  0
          71     4      3.734215137437374   82.961550539609576   19.146621635849634  0  0  0
          72     1      3.639449509695057   85.238492981531536   23.070554837481367  0  0  0
          73     1      1.771108908371224   82.937042583804157   24.409709657975391  0  0  0
          74     1      1.711817575768763   85.245839888158713   28.492848087147269  0  0  0
          75     4      2.610520080523431   82.951179479186280   29.756990122131239  0  0  0
          76     3      2.683966076136473   85.228179211821683   25.782741646604105  0  0  0
          77     3      3.612528116712951   82.948383123020363   27.155319525993420  0  0  0
          78     2      3.493034470699663   85.288641589396292   31.080049088606138  0  0  0
          79     3      1.593768783082590   83.003083411713135   32.379215076866693  0  0  0
          80     3      1.511811390281024   85.329806042298188   36.383782622233362  0  0  0
          81     2      2.407295947872418   83.019177178303408   37.720773938570503  0  0  0
          82     3      2.515775452096332   85.348781606072222   33.708061057888820  0  0  0
          83     3      3.432923080040919   83.040060095008741   35.103045511265108  0  0  0
          84     1      3.315735376710330   85.317141952403858   38.994240723445550  0  0  0
          85     2      1.408913599612472   83.028834253472311   40.352837651017566  0  0  0
          86     2      1.356005887687582   85.332187518551677   44.290319012164119  0  0  0
          87     1      2.224167253719760   83.049311790990515   45.625970514084429  0  0  0
          88     4      2.341325436836979   85.313758498216131   41.652512018900147  0  0  0
          89     1      3.255263990365243   83.048186064681587   42.969549277571318  0  0  0
          90     2      3.132397898579506   85.312527189112373   46.919187152243289  0  0  0
          91     4      1.244138333464155   83.048724184029197   48.286262975425345  0  0  0
          92     2      1.202094602174723   85.303006024096703   52.183066646931671  0  0  0
          93     4      2.097590711250854   83.055384937970899   53.487904995403994  0  0  0
          94     2      2.170311099526819   85.296670950530043   49.577670586493298  0  0  0
          95     4      3.033599801077518   83.039397961913721   50.896656187831304  0  0  0
          96     1      3.003639363613208   85.291406290993379   54.804602550789681  0  0  0
          97     3      1.143257259912444   83.012381338676803   56.132932670673355  0  0  0
          98     3      1.018992782556847   85.227359012024465   60.095013907779403  0  0  0
          99     2      1.972212689543696   82.983320072263794   61.418901771030768  0  0  0
         100     1      2.063998466618121   85.334438873070127   57.459695122838077  0  0  0
         101     4      2.947254874251559   82.993352228621760   58.750653812221337  0  0  0
         102     3      2.863017368518550   85.277006026137130   62.758715783655141  0  0  0
         103     1      0.972698629450100   82.973107518619159   64.060810488034349  0  0  0
         104     1      0.883456364029678   85.236394042711240   68.024028000598207  0  0  0
         105     1      1.840119759541209   82.937188331143616   69.317354629946649  0  0  0
         106     4      1.891325953961413   85.235279973979758   65.396622434296830  0  0  0
         107     2      2.810711888040523   82.942301215544816   66.690555346030877  0  0  0
         108     3      2.711400867264683   85.288643756446248   70.655170192888221  0  0  0
         109     3      2.210369498428681   87.509073371860239    0.668807322063082  0  0  0
         110     1      2.158981254499736   89.840972272026576    4.625566720921886  0  0  0
         111     3      3.039034615152451   87.525212068594840    5.978573003777633  0  0  0
         112     3      3.143264171411733   89.841276096171924    1.978524339516541  0  0  0
         113     3      4.031430684285637   87.515294730405358    3.266322278754316  0  0  0
         114     4      3.977563793858835   89.885962237577544    7.273490791551648  0  0  0
         115     2      2.084443033086231   87.523281504738392    8.592221592523428  0  0  0
         116     2      2.027909199816413   89.815487399604692   12.557135539348938  0  0  0
         117     1      2.920361803291354   87.525283616395242   13.871199748457652  0  0  0
         118     3      2.959194625090368   89.798335114892538    9.906761679666417  0  0  0
         119     3      3.913687015007309   87.489290439912182   11.254077671825657  0  0  0
         120     3      3.860192363591029   89.862390481700359   15.233667011147748  0  0  0
         121     3      1.953002700926252   87.520582048444552   16.542575120756272  0  0  0
         122     1      1.864433503708978   89.816610413802749   20.421747127203748  0  0  0
         123     4      2.753644770728672   87.511006748355513   21.780250325658276  0  0  0
         124     2      2.878176895598151   89.831562205757365   17.820714786527898  0  0  0
         125     3      3.729874404482990   87.499796367583798   19.140943447341282  0  0  0
         126     1      3.702249706705336   89.816044506942376   23.134662399296541  0  0  0
         127     3      1.792842826558138   87.537004991009695   24.426131483800155  0  0  0
         128     1      1.687104614325506   89.843828871509430   28.463292536669947  0  0  0
         129     2      2.583831487429277   87.539241021124965   29.801025065617353  0  0  0
         130     2      2.706434037431550   89.834757409422863   25.793280825279012  0  0  0
         131     3      3.577940681257436   87.560879268332329   27.152608866101311  0  0  0
         132     1      3.469676936499437   89.834489061448295   31.080245478389937  0  0  0
         133     4      1.597704870895235   87.592549918606394   32.402268373449530  0  0  0
         134     4      1.497924082061376   89.827637402443273   36.345438637843920  0  0  0
         135     2      2.423560026868109   87.602637801080022   37.677126403193313  0  0  0
         136     2      2.490450534673841   89.849032508788540   33.727394817875329  0  0  0
         137     2      3.392671574869033   87.589860236297866   35.041248720035263  0  0  0
         138     4      3.320544956487744   89.817830951297310   38.973479234371652  0  0  0
         139     2      1.427317369821641   87.553676909926210   40.329893556878176  0  0  0
         140     1      1.393690561460838   89.828580298596123   44.297448725332018  0  0  0
         141     2      2.262449708001033   87.555322162121996   45.611573540097616  0  0  0
         142     3      2.315107327061739   89.815719235325332   41.601077840463461  0  0  0
         143     3      3.262782443936203   87.534753885496485   42.968715350538126  0  0  0
         144     4      3.188661072708854   89.877167985454776   46.939949551880453  0  0  0
         145     1      1.282629769431295   87.552933002401033   48.252092306911081  0  0  0
         146     4      1.182020211473366   89.873804531957845   52.173783685513811  0  0  0
         147     1      2.091024685017569   87.611450312278052   53.504810425144541  0  0  0
         148     4      2.199448144113425   89.858837734033287   49.552018812547892  0  0  0
         149     4      3.081142344851359   87.583298214374011   50.874617556352867  0  0  0
         150     2      3.027982341099817   89.901032702783382   54.812221238106126  0  0  0
         151     4      1.085103374461649   87.581579778871486   56.127011316549783  0  0  0
         152     1      1.055178460265379   89.889260968086518   60.090263039771706  0  0  0
         153     1      1.936889398603601   87.580840532920178   61.387685412626809  0  0  0
         154     3      2.039139473785095   89.867298659102303   57.416314320377538  0  0  0
         155     2      2.977715298390208   87.605994091268357   58.772408177720379  0  0  0
         156     3      2.904643544473737   89.854397019301786   62.758155054529560  0  0  0
         157     1      1.030534008938160   87.566746300154833   64.075741465385988  0  0  0
         158     3      0.919101063633039   89.894001408995308   67.995744691851044  0  0  0
         159     3      1.852116525447305   87.571708174300881   69.326527528499838  0  0  0
         160     2      1.928009340166383   89.896048958248414   65.381341563093343  0  0  0
         161     1      2.843819947955271   87.579725754735648   66.653260595449893  0  0  0
         162     1      2.758392875694804   89.887537929676157   70.672976925892598  0  0  0
         163     3      2.212997437376809   92.170573121159634    0.652663776442405  0  0  0
         164     4      2.184116962175118   94.455358672992489    4.641181007651304  0  0  0
         165     4      3.055843309377500   92.151301068088330    5.950900120495844  0  0  0
         166     3      3.106800087401259   94.445321370691815    1.983797261470101  0  0  0
         167     1      4.057746967921170   92.173801759186162    3.299793944959474  0  0  0
         168     4      3.996552927966560   94.440211941395717    7.268597260971347  0  0  0
         169     3      2.110203138391520   92.159495022871639    8.561742075062892  0  0  0
         170     3      2.071046805492125   94.439989863753468   12.561684495850526  0  0  0
         171     2      2.956462478688679   92.147025594054909   13.889458450505270  0  0  0
         172     4      3.022493847712736   94.453361651637039    9.892448164460426  0  0  0
         173     1      3.922564327660153   92.173022348806967   11.232060917505096  0  0  0
         174     4      3.858553429295644   94.412342041977425   15.194288691868501  0  0  0
         175     3      1.970205182704785   92.135048364322131   16.521927846827097  0  0  0
         176     1      1.872429167383393   94.413262448179168   20.491658287260464  0  0  0
         177     1      2.779962257561230   92.127539909372430   21.797916140603437  0  0  0
         178     4      2.858384394024876   94.433075845104639   17.801642290682395  0  0  0
         179     3      3.760572968006056   92.131723198011770   19.096649200869138  0  0  0
         180     1      3.676533940852215   94.472497918950864   23.169110132856332  0  0  0
         181     1      1.775155560259813   92.165633127669352   24.497340000667950  0  0  0
         182     2      1.686129968621318   94.437197894898077   28.443458987075591  0  0  0
         183     4      2.586752713835698   92.174801236168904   29.784815608532650  0  0  0
         184     4      2.692785016165031   94.461078643892336   25.840682738852340  0  0  0
         185     1      3.562740174117847   92.124142179928810   27.131609565296223  0  0  0
         186     4      3.475086190424570   94.452079179528496   31.071381279236970  0  0  0
         187     4      1.597185673424466   92.119737280171748   32.374056740831833  0  0  0
         188     2      1.533949400253380   94.460017160638571   36.377505675653033  0  0  0
         189     1      2.424751790276222   92.157872525332607   37.660080982603297  0  0  0
         190     3      2.490829500113227   94.423571442808893   33.703166798339836  0  0  0
         191     1      3.428554474954073   92.141668156338085   35.043731537956205  0  0  0
         192     2      3.342340775654383   94.488796521149936   38.953980223705436  0  0  0
         193     3      1.392305619719362   92.158147983258516   40.275106249824134  0  0  0
         194     1      1.385050324443101   94.492890938270108   44.262254704072966  0  0  0
         195     2      2.292487932335574   92.144412255519654   45.627873798605222  0  0  0
         196     3      2.387565063683875   94.455908805478217   41.571326845212823  0  0  0
         197     3      3.259151019654084   92.150590564181073   42.965781557823348  0  0  0
         198     3      3.160372280823279   94.450914794204650   46.914502482378488  0  0  0
         199     2      1.323236583960288   92.156060430129671   48.234098936061720  0  0  0
         200     1      1.172770405379897   94.434940738970255   52.204655668228121  0  0  0
         201     4      2.103850162133338   92.160107105838364   53.533145976728633  0  0  0
         202     4      2.197895388756251   94.441415815278447   49.531061456879968  0  0  0
         203     3      3.086760389944731   92.159323379584450   50.851616087639357  0  0  0
         204     4      3.005805760905650   94.471447309404411   54.841534911510848  0  0  0
         205     4      1.125169286171319   92.208021542945261   56.116261836813187  0  0  0
         206     1      1.102099066666968   94.476738631734037   60.074393800990805  0  0  0
         207     1      1.992161119342909   92.174530284908911   61.417968942723427  0  0  0
         208     4      2.035805194450784   94.476807421804907   57.425670019117071  0  0  0
         209     3      2.966806323118596   92.198727238963329   58.769336789982084  0  0  0
         210     3      2.941770220585673   94.514263209924223   62.726888995538573  0  0  0
         211     1      0.999073582840937   92.159887775727825   64.073526944605049  0  0  0
         212     3      0.898317417748059   94.488863514223482   68.070975223742025  0  0  0
         213     3      1.842954440654434   92.200070972971645   69.335723114374503  0  0  0
         214     3      1.915268666179087   94.487129233954363   65.382005852928870  0  0  0
         215     4      2.842746459391951   92.183476278208204   66.709254952333168  0  0  0
         216     4      2.729173380682369   94.458445190234386   70.666978520292091  0  0  0
         217     3      2.180243942864764   96.731278674265155    0.708003237178771  0  0  0
         218     1      2.151394763315218   99.009082308703086    4.598638614035966  0  0  0
         219     2      3.073358698084372   96.704831406367347    5.941082795357996  0  0  0
         220     4      3.153483990544309   99.044585263681810    1.989935772108202  0  0  0
         221     3      4.031856820219535   96.724945969023238    3.335331135380103  0  0  0
         222     1      3.988370817615275   99.008530499846117    7.258485077216118  0  0  0
         223     1      2.101501708008185   96.703845284268567    8.580889574662230  0  0  0
         224     4      2.029828536740056   98.975067435368786   12.543081713741929  0  0  0
         225     2      2.927108620265409   96.720239601106812   13.869568683917205  0  0  0
         226     3      3.022715795574804   99.039044143355966    9.927375120137642  0  0  0
         227     4      3.935009038687213   96.708852316322222   11.233800192053510  0  0  0
         228     1      3.865548141616394   98.983372812205715   15.175153906448932  0  0  0
         229     2      1.976738517333726   96.682612262624204   16.491287773211951  0  0  0
         230     1      1.840705161065528   98.996572413791043   20.522280049917985  0  0  0
         231     2      2.794230061081997   96.734010080851917   21.827478385437200  0  0  0
         232     1      2.845764982761037   98.996111950620744   17.810850276027757  0  0  0
         233     1      3.780110187240323   96.690534389893045   19.140420353234955  0  0  0
         234     4      3.673885139385535   98.960459081953275   23.146330773843083  0  0  0
         235     3      1.777873865430065   96.712648216543158   24.469430932061844  0  0  0
         236     4      1.685564701886324   98.971219706303174   28.417137992618510  0  0  0
         237     2      2.618197563287695   96.705563471622568   29.727669583418646  0  0  0
         238     1      2.702551182328790   99.028737092541618   25.809074599001313  0  0  0
         239     4      3.577418345932481   96.709184751722830   27.111659214065000  0  0  0
         240     1      3.489048004715153   98.968534550648329   31.076262598981472  0  0  0
         241     3      1.616086755575137   96.725411646026714   32.361075386707789  0  0  0
         242     3      1.579724475639200   99.021626803886974   36.370827602711330  0  0  0
         243     2      2.443713226464279   96.737542188272187   37.684026354508177  0  0  0
         244     4      2.545943677604310   99.048350920587197   33.721105782680489  0  0  0
         245     3      3.456480358706362   96.751600267942280   35.049921378043621  0  0  0
         246     2      3.337673158504714   99.047194005698969   38.978296192456916  0  0  0
         247     3      1.427172251187757   96.749828263580042   40.292096645211487  0  0  0
         248     1      1.304109412857801   99.068603878887913   44.261212570403366  0  0  0
         249     4      2.271212896147394   96.795538393782707   45.581802997233225  0  0  0
         250     3      2.344653058944406   99.090756402698801   41.606244346217437  0  0  0
         251     3      3.235171476012898   96.773080900917293   42.914800917466579  0  0  0
         252     2      3.151652467484054   99.065082912188984   46.898476545692262  0  0  0
         253     3      1.278757914229618   96.800819735113052   48.207129597594559  0  0  0
         254     4      1.140078525965903   99.052848399086116   52.194392478456500  0  0  0
         255     3      2.100437281586599   96.754648533328577   53.514727368374871  0  0  0
         256     2      2.181680270510422   99.055562310172576   49.535984116546317  0  0  0
         257     1      3.058120386894005   96.768281333932066   50.827296698533416  0  0  0
         258     1      3.015781205290985   99.011356206905376   54.849398210103736  0  0  0
         259     4      1.115448108023339   96.745961417484310   56.140882784393085  0  0  0
         260     4      1.071219184360493   99.083043694334421   60.114061110095584  0  0  0
         261     3      1.975017693864850   96.814622717114503   61.431277852776994  0  0  0
         262     3      2.021795733876370   99.035801667106085   57.487262745683907  0  0  0
         263     3      2.990287456268221   96.759390469942886   58.774663816425800  0  0  0
         264     4      2.889260164105366   99.071343257351572   62.728123660099243  0  0  0
         265     4      1.010376252672404   96.799835756916536   64.051540810293943  0  0  0
         266     2      0.882242879290956   99.057011507319572   68.036480859896429  0  0  0
         267     3      1.797294983447919   96.794047564243101   69.379585941972095  0  0  0
         268     3      1.910624423457797   99.067767218941199   65.372415192927519  0  0  0
         269     1      2.813397939112662   96.747142891168011   66.698011690758307  0  0  0
         270     4      2.726533320953268   99.086088129179743   70.706135343178900  0  0  0
         271     1      2.254494381907193  101.313029822362978    0.696059939154331  0  0  0
         272     4      2.184475566437151  103.547400586705677    4.628334940754408  0  0  0
         273     4      3.080218444112746  101.329502642928176    5.946047438441563  0  0  0
         274     1      3.166285176162066  103.600228709093855    1.999098988955645  0  0  0
         275     4      4.056910022723096  101.320096883092944    3.307984358125047  0  0  0
         276     4      3.990250095071416  103.567691586945571    7.245673371903113  0  0  0
         277     2      2.110900082113722  101.305409076887912    8.577498578580235  0  0  0
         278     4      2.031291176222292  103.643432079710024   12.541768932517392  0  0  0
         279     3      2.920531682631389  101.301646009133322   13.834636287093387  0  0  0
         280     1      3.026227220402129  103.573714008139902    9.907237910471924  0  0  0
         281     2      3.923216211767925  101.286271273009987   11.217738319725035  0  0  0
         282     3      3.875318521490923  103.623176933130338   15.203026413790331  0  0  0
         283     4      1.993695142041565  101.337377476550472   16.504251922742824  0  0  0
         284     4      1.892006067198405  103.657978650616968   20.456207288518360  0  0  0
         285     1      2.776093548423793  101.318200505090999   21.811761937816417  0  0  0
         286     4      2.829082161443616  103.646764573118347   17.827527465882270  0  0  0
         287     1      3.778643517007090  101.363090499570859   19.132383012247917  0  0  0
         288     1      3.716972237808196  103.664338232288529   23.087780129552474  0  0  0
         289     1      1.735405802139083  101.296692717959417   24.446228108642146  0  0  0
         290     4      1.648290072890572  103.633861878465538   28.412351021492086  0  0  0
         291     1      2.593903551149150  101.299127346461162   29.728682956443063  0  0  0
         292     1      2.713653812505082  103.610548646364123   25.802307849232996  0  0  0
         293     2      3.591722911437062  101.316016027665725   27.111576362439369  0  0  0
         294     1      3.476424348847522  103.598117403359026   31.085088410550892  0  0  0
         295     2      1.615718329587983  101.313012256765191   32.417629735653193  0  0  0
         296     1      1.502075976950545  103.614314523882030   36.359574693481477  0  0  0
         297     2      2.435125787550947  101.326603646157551   37.688214134068616  0  0  0
         298     2      2.522624654549420  103.558491747808574   33.717198156636435  0  0  0
         299     2      3.427137716548147  101.293204801289406   35.048449962731638  0  0  0
         300     4      3.323401642274172  103.593430765925717   39.008882212685911  0  0  0
         301     3      1.417590604873149  101.350737335293914   40.306315886152532  0  0  0
         302     4      1.331668817834703  103.606525973566278   44.268619038038231  0  0  0
         303     4      2.237518055146485  101.345005332093010   45.563421540050435  0  0  0
         304     1      2.297800962642737  103.624433181614762   41.625046679006637  0  0  0
         305     2      3.224687488535588  101.333592017953634   42.930696091344565  0  0  0
         306     2      3.134818624455421  103.623921579546234   46.893698232107120  0  0  0
         307     1      1.262988784888013  101.302705281763508   48.200874183328914  0  0  0
         308     1      1.143004684680162  103.660936815422104   52.203871769021120  0  0  0
         309     3      2.108869760397433  101.324254467256893   53.513352491317761  0  0  0
         310     3      2.128270772121164  103.658891019655755   49.522459195641986  0  0  0
         311     3      3.060366089297494  101.301872333012881   50.821698404251528  0  0  0
         312     4      2.980098312250904  103.668988767699759   54.863269642034936  0  0  0
         313     3      1.087722101326540  101.333738281925633   56.170267832242139  0  0  0
         314     3      1.034629541817266  103.587598730714220   60.082814281390938  0  0  0
         315     4      1.961664291258663  101.291078580611554   61.438540465436851  0  0  0
         316     2      2.009396468076762  103.620107733003920   57.460871703882319  0  0  0
         317     1      2.944006270935932  101.355245231673265   58.809717363417590  0  0  0