LAMMPS (23 Jun 2022)
Running on 40 partitions of processors
Step MaxReplicaForce MaxAtomForce GradV0 GradV1 GradVc EBF EBR RDT RD1 PE1 RD2 PE2 ... RDN PEN
0    2.8419623    0.8524364 0.00072365593 2.6104399e-05    2.8344078    1.1886445    1.2148531    7.0575293                    0                    0          0.025641026          0.010645284          0.051282051           0.04098882          0.076923077          0.088428775            0.1025641            0.1503853           0.12820513           0.22423601           0.15384615           0.30745592           0.17948718           0.39747111           0.20512821           0.49166371           0.23076923           0.58749379           0.25641026           0.68257904           0.28205128           0.77454513           0.30769231           0.86122207           0.33333333            0.9407277           0.35897436            1.0113235           0.38461538            1.0715563           0.41025641            1.1202653           0.43589744            1.1564667           0.46153846             1.179406           0.48717949            1.1886445           0.51282051            1.1840256           0.53846154            1.1656468           0.56410256            1.1338675           0.58974359            1.0893133           0.61538462            1.0328713           0.64102564           0.96572559           0.66666667           0.88937566           0.69230769           0.80559471           0.71794872            0.7162711           0.74358974           0.62342135           0.76923077           0.52912506           0.79487179           0.43554858           0.82051282           0.34491609           0.84615385           0.25941543           0.87179487           0.18108876            0.8974359           0.11204093           0.92307692          0.054539603           0.94871795          0.010934223           0.97435897         -0.016599259                    1         -0.026208526 
100  0.013759209 7.0716848e-07 8.8092303e-05 3.3686365e-06  0.089865579   0.79279311   0.81900124    10.069508                    0                    0          0.023316377        0.00021403705          0.046814727        0.00086431176          0.070653331         0.0019720466          0.094951995         0.0035694997           0.11979189         0.0056979919           0.14523443         0.0084112605           0.17134276          0.011799591           0.19813811          0.016145392           0.22543712          0.022958209           0.25310104           0.03649602           0.28068682          0.062530516           0.30809786           0.11296975            0.3352271           0.19148286            0.3622306           0.29196019           0.38912189            0.4074084           0.41576011           0.53005267           0.44213518           0.64777438            0.4683029           0.74225325           0.49432635           0.79279311           0.52026578           0.78617708           0.54617247           0.72054832            0.5720717           0.60959902           0.59798468           0.47345631           0.62397462           0.33331225           0.65011296           0.20770666           0.67638494           0.11204893           0.70273223          0.052155956           0.72913624          0.019774994           0.75562447         0.0028489529           0.78217648        -0.0062506925           0.80847065         -0.011396423           0.83422187         -0.015229098             0.859335         -0.018339658           0.88385888         -0.020859686            0.9078536         -0.022848394           0.93137539          -0.02434749           0.95449811         -0.025390851            0.9773273          -0.02600517                    1         -0.026208136 
200 0.0041447127 4.7365173e-08 5.5658215e-05 2.4231009e-06   0.10224669   0.79128937   0.81749741    10.184927                    0                    0             0.025041        0.00022896024           0.05014269        0.00091864646          0.075362268         0.0020761334           0.10075007         0.0037131805           0.12634553         0.0058490456           0.15216985         0.0085271772           0.17821174          0.011888597           0.20442102          0.016448876           0.23074696          0.023749955           0.25715583          0.036904848           0.28361218          0.061995023           0.31008251           0.10978907           0.33654109           0.18532086           0.36296961           0.28311433           0.38935451           0.39644344           0.41568606           0.51864642           0.44195828            0.6382555           0.46816846           0.73660806           0.49431646           0.79128937           0.52040367           0.78748785           0.54643229           0.72252599           0.57240436           0.61061491            0.5983208           0.47300336           0.62418076           0.33205771           0.64998112           0.20684682           0.67571647           0.11209897           0.70137903          0.052716519           0.72695943          0.020385557           0.75244938         0.0033371114            0.7778447        -0.0059671662            0.8031481         -0.011461517           0.82834799         -0.015286409           0.85338919         -0.018306102           0.87823113          -0.02077067           0.90287038         -0.022751247           0.92732778         -0.024273456           0.95163815         -0.025351247           0.97584554         -0.025994132                    1         -0.026208045 
300 0.0017010668 6.4208777e-08 3.4528195e-05 1.8831595e-06   0.11160844   0.79007617   0.81628417    10.219768                    0                    0          0.025698163         0.0002380487           0.05141737        0.00095334605          0.077177558         0.0021485448           0.10299633         0.0038290694           0.12888678         0.0060080872           0.15485395         0.0087259471           0.18089312           0.01212904           0.20699421          0.016755389           0.23314417          0.024132301           0.25932566          0.037301826           0.28552197          0.062219507           0.31171945            0.1094412           0.33790836           0.18403737           0.36408139           0.28076405           0.39023188           0.39307546           0.41635344           0.51454037           0.44243993           0.63407029           0.46848552           0.73339428           0.49448472           0.79007617           0.52043211           0.78895607           0.54632229             0.726656           0.57214996           0.61675362           0.59790999           0.48024507           0.62359729           0.33947414           0.64920697           0.21341662           0.67473493           0.11697262            0.7001774          0.055683019           0.72553206          0.021995226           0.75079947         0.0041775301           0.77598467        -0.0055401983           0.80109877         -0.011224065           0.82615526         -0.015111117           0.85115738         -0.018158523            0.8760981         -0.020649926           0.90097349         -0.022661588           0.92578843         -0.024216772           0.95055428         -0.025323923           0.97528589         -0.025986962                    1         -0.026208007 
400  0.001422028 2.4663816e-07 2.1035145e-05 1.5431932e-06   0.11259248   0.79033639   0.81654438    10.232258                    0                    0          0.025954362        0.00024129316          0.051917411        0.00096584161          0.077897339         0.0021752545           0.10390105         0.0038741464           0.12993279          0.006075664            0.1559935         0.0088188999           0.18208215          0.012245587           0.20819537          0.016885709           0.23432389          0.024245839           0.26045435           0.03732846           0.28657535          0.061994793           0.31267869            0.1086911           0.33875913           0.18260428           0.36481294           0.27859547            0.3908366           0.39016341            0.4168264           0.51100315           0.44277842           0.63034891           0.46868855           0.73037176           0.49455273           0.78881194           0.52036675           0.79033639           0.54612656           0.73093238           0.57182802           0.62336853           0.59746737           0.48819271           0.62304126           0.34760532           0.64854693            0.2205127           0.67398233           0.12211697           0.69934579          0.058705629           0.72463715          0.023557578            0.7498588           0.00494603           0.77501689        -0.0051817516           0.80012272         -0.011052307           0.82519028         -0.015007307           0.85022927         -0.018086396           0.87524347         -0.020600608           0.90023303         -0.022629375           0.92519873         -0.024197684            0.9501443         -0.025314974           0.97507574         -0.025984654                    1          -0.02620799 
422 0.0009977875 5.4425924e-08 1.9615339e-05 1.4963446e-06   0.11128801   0.79049523   0.81670322    10.233236                    0                    0           0.02597291        0.00024146159          0.051953743        0.00096649316          0.077949944         0.0021766961           0.10396768         0.0038768071           0.13001054         0.0060801589           0.15607919         0.0088255631           0.18217274          0.012253735           0.20828804          0.016892785           0.23441595          0.024245799           0.26054338           0.03730977           0.28665929          0.061932518           0.31275577           0.10854865           0.33882781           0.18237089           0.36487194           0.27827471           0.39088485           0.38976049            0.4168631           0.51053533           0.44280297           0.62987069           0.46870059           0.72998931           0.49455211           0.78865006           0.52035356           0.79049523           0.54610114           0.73143588           0.57179095            0.6241438           0.59741949             0.489117           0.62298366           0.34854197           0.64848084           0.22132417           0.67390907           0.12270278           0.69926703          0.059047873           0.72455474          0.023732473            0.7497747         0.0050305882           0.77493303        -0.0051434267           0.80004082         -0.011035145           0.82511193         -0.014997944           0.85015611         -0.018080516           0.87517761         -0.020597169           0.90017695         -0.022627532           0.92515469         -0.024196734             0.950114         -0.025314552            0.9750603         -0.025984548                    1          -0.02620799 
Climbing replica = 21
Step MaxReplicaForce MaxAtomForce GradV0 GradV1 GradVc EBF EBR RDT RD1 PE1 RD2 PE2 ... RDN PEN
422   0.11128801 0.0016893463 1.9615339e-05 1.4963446e-06   0.11128801   0.79049523   0.81670322    10.233236                    0                    0           0.02597291        0.00024146159          0.051953743        0.00096649313          0.077949944          0.002176696           0.10396768          0.003876807           0.13001054         0.0060801589           0.15607919         0.0088255631           0.18217274          0.012253735           0.20828804          0.016892785           0.23441595          0.024245799           0.26054338           0.03730977           0.28665929          0.061932518           0.31275577           0.10854865           0.33882781           0.18237089           0.36487194           0.27827471           0.39088485           0.38976049            0.4168631           0.51053533           0.44280297           0.62987069           0.46870059           0.72998931           0.49455211           0.78865006           0.52035356           0.79049523           0.54610114           0.73143588           0.57179095            0.6241438           0.59741949             0.489117           0.62298366           0.34854197           0.64848084           0.22132417           0.67390907           0.12270278           0.69926703          0.059047873           0.72455474          0.023732473            0.7497747         0.0050305882           0.77493303        -0.0051434267           0.80004082         -0.011035145           0.82511193         -0.014997944           0.85015611         -0.018080516           0.87517761         -0.020597169           0.90017695         -0.022627532           0.92515469         -0.024196734             0.950114         -0.025314552            0.9750603         -0.025984548                    1          -0.02620799 
