Dimond Silicon

      18432 atoms
      0 bonds
      0 angles
      0 dihedrals
      0 impropers

      1 atom types
      0 bond types
      0 angle types
      0 dihedral types
      0 improper types

      0 206.933 xlo xhi
      0 88.7746 ylo yhi
      0 19.9121 zlo zhi

Atoms

      1   1             7.5627389644         23.073850159        1.27391841291   0  0  0
      2   1             6.1292726868        25.1033262896        1.28762590255   0  0  0
      3   1             8.2846040416         25.099686531         2.5197368703   0  0  0
      4   1             4.6854804525        21.0718941544        1.28449771164   0  0  0
      5   1             6.8408738872        21.0681656212         2.5166504948   0  0  0
      6   1             3.2520141749        23.0813072254        1.29868906531   0  0  0
      7   1              5.407366223        23.0775786922         2.5307880858   0  0  0
      8   1             7.5627389644         23.073850159         3.7629289217   0  0  0
      9   1            1.81859963055         25.110783356        1.31248416819   0  0  0
      10   1              3.973941332        25.1070548228         2.5445473469   0  0  0
      11   1             6.1292726868        25.1033262896         3.7766483586   0  0  0
      12   1             8.2846040416         25.099686531         5.0087493703   0  0  0
      13   1            0.37469772176        21.0793512208         1.3093002234   0  0  0
      14   1             2.5300870178        21.0756226876         2.5414012351   0  0  0
      15   1             4.6854804525        21.0718941544         3.7735022468   0  0  0
      16   1             6.8408738872        21.0681656212         5.0056629948   0  0  0
      17   1            1.09664764149        23.0850357586         2.5556184745   0  0  0
      18   1             3.2520141749        23.0813072254         3.7876995741   0  0  0
      19   1              5.407366223        23.0775786922         5.0198005858   0  0  0
      20   1            1.81859963055         25.110783356         3.8014986594   0  0  0
      21   1              3.973941332        25.1070548228         5.0335598469   0  0  0
      22   1            0.37469772176        21.0793512208         3.7983127234   0  0  0
      23   1             2.5300870178        21.0756226876         5.0304137351   0  0  0
      24   1            1.09664764149        23.0850357586         5.0446309745   0  0  0
      25   1             7.5627389644         23.073850159         6.2519414217   0  0  0
      26   1             6.1292726868        25.1033262896         6.2656608586   0  0  0
      27   1             8.2846040416         25.099686531         7.4977618703   0  0  0
      28   1             4.6854804525        21.0718941544         6.2625147468   0  0  0
      29   1             6.8408738872        21.0681656212         7.4946754948   0  0  0
      30   1             3.2520141749        23.0813072254         6.2767120741   0  0  0
      31   1              5.407366223        23.0775786922         7.5088130858   0  0  0
      32   1             7.5627389644         23.073850159         8.7409539217   0  0  0
      33   1            1.81859963055         25.110783356         6.2905111594   0  0  0
      34   1              3.973941332        25.1070548228         7.5225723469   0  0  0
      35   1             6.1292726868        25.1033262896         8.7546733586   0  0  0
      36   1             8.2846040416         25.099686531         9.9867743703   0  0  0
      37   1            0.37469772176        21.0793512208         6.2873252234   0  0  0
      38   1             2.5300870178        21.0756226876         7.5194262351   0  0  0
      39   1             4.6854804525        21.0718941544         8.7515272468   0  0  0
      40   1             6.8408738872        21.0681656212         9.9836879948   0  0  0
      41   1            1.09664764149        23.0850357586         7.5336434745   0  0  0
      42   1             3.2520141749        23.0813072254         8.7657245741   0  0  0
      43   1              5.407366223        23.0775786922         9.9978255858   0  0  0
      44   1            1.81859963055         25.110783356         8.7795236594   0  0  0
      45   1              3.973941332        25.1070548228        10.0115848469   0  0  0
      46   1            0.37469772176        21.0793512208         8.7763377234   0  0  0
      47   1             2.5300870178        21.0756226876        10.0084387351   0  0  0
      48   1            1.09664764149        23.0850357586        10.0226559745   0  0  0
      49   1             7.5627389644         23.073850159        11.2299664217   0  0  0
      50   1             6.1292726868        25.1033262896        11.2436858586   0  0  0
      51   1             8.2846040416         25.099686531        12.4757868703   0  0  0
      52   1             4.6854804525        21.0718941544        11.2405397468   0  0  0
      53   1             6.8408738872        21.0681656212        12.4727004948   0  0  0
      54   1             3.2520141749        23.0813072254        11.2547370741   0  0  0
      55   1              5.407366223        23.0775786922        12.4868380858   0  0  0
      56   1             7.5627389644         23.073850159        13.7189789217   0  0  0
      57   1            1.81859963055         25.110783356        11.2685361594   0  0  0
      58   1              3.973941332        25.1070548228        12.5005973469   0  0  0
      59   1             6.1292726868        25.1033262896        13.7326983586   0  0  0
      60   1             8.2846040416         25.099686531        14.9647993703   0  0  0
      61   1            0.37469772176        21.0793512208        11.2653502234   0  0  0
      62   1             2.5300870178        21.0756226876        12.4974512351   0  0  0
      63   1             4.6854804525        21.0718941544        13.7295522468   0  0  0
      64   1             6.8408738872        21.0681656212        14.9617129948   0  0  0
      65   1            1.09664764149        23.0850357586        12.5116684745   0  0  0
      66   1             3.2520141749        23.0813072254        13.7437495741   0  0  0
      67   1              5.407366223        23.0775786922        14.9758505858   0  0  0
      68   1            1.81859963055         25.110783356        13.7575486594   0  0  0
      69   1              3.973941332        25.1070548228        14.9896098469   0  0  0
      70   1            0.37469772176        21.0793512208        13.7543627234   0  0  0
      71   1             2.5300870178        21.0756226876        14.9864637351   0  0  0
      72   1            1.09664764149        23.0850357586        15.0006809745   0  0  0
      73   1             7.5627389644         23.073850159        16.2079914217   0  0  0
      74   1             6.1292726868        25.1033262896        16.2217108586   0  0  0
      75   1             8.2846040416         25.099686531        17.4538118703   0  0  0
      76   1             4.6854804525        21.0718941544        16.2185647468   0  0  0
      77   1             6.8408738872        21.0681656212        17.4507254948   0  0  0
      78   1             3.2520141749        23.0813072254        16.2327620741   0  0  0
      79   1              5.407366223        23.0775786922        17.4648630858   0  0  0
      80   1             7.5627389644         23.073850159        18.6970039217   0  0  0
      81   1            1.81859963055         25.110783356        16.2465611594   0  0  0
      82   1              3.973941332        25.1070548228        17.4786223469   0  0  0
      83   1             6.1292726868        25.1033262896        18.7107233586   0  0  0
      84   1             8.2846040416         25.099686531       0.030730941293   0  0  0
      85   1            0.37469772176        21.0793512208        16.2433752234   0  0  0
      86   1             2.5300870178        21.0756226876        17.4754762351   0  0  0
      87   1             4.6854804525        21.0718941544        18.7075772468   0  0  0
      88   1             6.8408738872        21.0681656212       0.027634410622   0  0  0
      89   1            1.09664764149        23.0850357586        17.4896934745   0  0  0
      90   1             3.2520141749        23.0813072254        18.7217745741   0  0  0
      91   1              5.407366223        23.0775786922       0.041782555035   0  0  0
      92   1            1.81859963055         25.110783356        18.7355736594   0  0  0
      93   1              3.973941332        25.1070548228       0.055538032836   0  0  0
      94   1            0.37469772176        21.0793512208        18.7323877234   0  0  0
      95   1             2.5300870178        21.0756226876       0.052380172897   0  0  0
      96   1            1.09664764149        23.0850357586       0.066607169226   0  0  0
      97   1             7.5730028412         29.165563211        1.29028217669   0  0  0
      98   1             6.1395779502        31.2003658176        1.30409918288   0  0  0
      99   1             8.2948265318        31.1966372844         2.5360847044   0  0  0
      100   1             4.6958477958        27.1381288962        1.30140507575   0  0  0
      101   1             6.8511584573         27.134400363         2.5334762193   0  0  0
      102   1             3.2624435981        29.1729315028        1.31524995888   0  0  0
      103   1              5.417712873        29.1692029696         2.5472553925   0  0  0
      104   1             7.5730028412         29.165563211         3.7792966679   0  0  0
      105   1            1.82907664834        31.2077341094        1.32916453436   0  0  0
      106   1             3.9843293686        31.2040055762         2.5611341262   0  0  0
      107   1             6.1395779502        31.2003658176         3.7931156653   0  0  0
      108   1             8.2948265318        31.1966372844         5.0250972044   0  0  0
      109   1             0.3852264728        27.1455859626        1.32634298979   0  0  0
      110   1             2.5405371343        27.1418574294         2.5583663443   0  0  0
      111   1             4.6958477958        27.1381288962         3.7904076197   0  0  0
      112   1             6.8511584573         27.134400363         5.0224887193   0  0  0
      113   1            1.10716604588         29.176660036         2.5722649901   0  0  0
      114   1             3.2624435981        29.1729315028         3.8042664413   0  0  0
      115   1              5.417712873        29.1692029696         5.0362678925   0  0  0
      116   1            1.82907664834        31.2077341094         3.8181849992   0  0  0
      117   1             3.9843293686        31.2040055762         5.0501466262   0  0  0
      118   1             0.3852264728        27.1455859626          3.815357481   0  0  0
      119   1             2.5405371343        27.1418574294         5.0473788443   0  0  0
      120   1            1.10716604588         29.176660036         5.0612774901   0  0  0
      121   1             7.5730028412         29.165563211         6.2683091679   0  0  0
      122   1             6.1395779502        31.2003658176         6.2821281653   0  0  0
      123   1             8.2948265318        31.1966372844         7.5141097044   0  0  0
      124   1             4.6958477958        27.1381288962         6.2794201197   0  0  0
      125   1             6.8511584573         27.134400363         7.5115012193   0  0  0
      126   1             3.2624435981        29.1729315028         6.2932789413   0  0  0
      127   1              5.417712873        29.1692029696         7.5252803925   0  0  0
      128   1             7.5730028412         29.165563211         8.7573216679   0  0  0
      129   1            1.82907664834        31.2077341094         6.3071974992   0  0  0
      130   1             3.9843293686        31.2040055762         7.5391591262   0  0  0
      131   1             6.1395779502        31.2003658176         8.7711406653   0  0  0
      132   1             8.2948265318        31.1966372844        10.0031222044   0  0  0
      133   1             0.3852264728        27.1455859626          6.304369981   0  0  0
      134   1             2.5405371343        27.1418574294         7.5363913443   0  0  0
      135   1             4.6958477958        27.1381288962         8.7684326197   0  0  0
      136   1             6.8511584573         27.134400363        10.0005137193   0  0  0
      137   1            1.10716604588         29.176660036         7.5502899901   0  0  0
      138   1             3.2624435981        29.1729315028         8.7822914413   0  0  0
      139   1              5.417712873        29.1692029696        10.0142928925   0  0  0
      140   1            1.82907664834        31.2077341094         8.7962099992   0  0  0
      141   1             3.9843293686        31.2040055762        10.0281716262   0  0  0
      142   1             0.3852264728        27.1455859626          8.793382481   0  0  0
      143   1             2.5405371343        27.1418574294        10.0254038443   0  0  0
      144   1            1.10716604588         29.176660036        10.0393024901   0  0  0
      145   1             7.5730028412         29.165563211        11.2463341679   0  0  0
      146   1             6.1395779502        31.2003658176        11.2601531653   0  0  0
      147   1             8.2948265318        31.1966372844        12.4921347044   0  0  0
      148   1             4.6958477958        27.1381288962        11.2574451197   0  0  0
      149   1             6.8511584573         27.134400363        12.4895262193   0  0  0
      150   1             3.2624435981        29.1729315028        11.2713039413   0  0  0
      151   1              5.417712873        29.1692029696        12.5033053925   0  0  0
      152   1             7.5730028412         29.165563211        13.7353466679   0  0  0
      153   1            1.82907664834        31.2077341094        11.2852224992   0  0  0
      154   1             3.9843293686        31.2040055762        12.5171841262   0  0  0
      155   1             6.1395779502        31.2003658176        13.7491656653   0  0  0
      156   1             8.2948265318        31.1966372844        14.9811472044   0  0  0
      157   1             0.3852264728        27.1455859626         11.282394981   0  0  0
      158   1             2.5405371343        27.1418574294        12.5144163443   0  0  0
      159   1             4.6958477958        27.1381288962        13.7464576197   0  0  0
      160   1             6.8511584573         27.134400363        14.9785387193   0  0  0
      161   1            1.10716604588         29.176660036        12.5283149901   0  0  0
      162   1             3.2624435981        29.1729315028        13.7603164413   0  0  0
      163   1              5.417712873        29.1692029696        14.9923178925   0  0  0
      164   1            1.82907664834        31.2077341094        13.7742349992   0  0  0
      165   1             3.9843293686        31.2040055762        15.0061966262   0  0  0
      166   1             0.3852264728        27.1455859626         13.771407481   0  0  0
      167   1             2.5405371343        27.1418574294        15.0034288443   0  0  0
      168   1            1.10716604588         29.176660036        15.0173274901   0  0  0
      169   1             7.5730028412         29.165563211        16.2243591679   0  0  0
      170   1             6.1395779502        31.2003658176        16.2381781653   0  0  0
      171   1             8.2948265318        31.1966372844        17.4701597044   0  0  0
      172   1             4.6958477958        27.1381288962        16.2354701197   0  0  0
      173   1             6.8511584573         27.134400363        17.4675512193   0  0  0
      174   1             3.2624435981        29.1729315028        16.2493289413   0  0  0
      175   1              5.417712873        29.1692029696        17.4813303925   0  0  0
      176   1             7.5730028412         29.165563211        18.7133716679   0  0  0
      177   1            1.82907664834        31.2077341094        16.2632474992   0  0  0
      178   1             3.9843293686        31.2040055762        17.4952091262   0  0  0
      179   1             6.1395779502        31.2003658176        18.7271906653   0  0  0
      180   1             8.2948265318        31.1966372844       0.047081363966   0  0  0
      181   1             0.3852264728        27.1455859626         16.260419981   0  0  0
      182   1             2.5405371343        27.1418574294        17.4924413443   0  0  0
      183   1             4.6958477958        27.1381288962        18.7244826197   0  0  0
      184   1             6.8511584573         27.134400363       0.044454758855   0  0  0
      185   1            1.10716604588         29.176660036        17.5063399901   0  0  0
      186   1             3.2624435981        29.1729315028        18.7383414413   0  0  0
      187   1              5.417712873        29.1692029696       0.058250658219   0  0  0
      188   1            1.82907664834        31.2077341094        18.7522599992   0  0  0
      189   1             3.9843293686        31.2040055762       0.072121028837   0  0  0
      190   1             0.3852264728        27.1455859626         18.749432481   0  0  0
      191   1             2.5405371343        27.1418574294       0.069360614414   0  0  0
      192   1            1.10716604588         29.176660036       0.083246118228   0  0  0
      193   1             7.5831839448         35.262602739         1.3067713867   0  0  0
      194   1             6.1498004404        37.2974053456        1.32076760179   0  0  0
      195   1             8.3049455555         37.293765587         2.5526117474   0  0  0
      196   1             4.7061737525        33.2351684242        1.31800380231   0  0  0
      197   1             6.8614016408         33.231439891          2.549943526   0  0  0
      198   1             3.2728109414        35.2699710308        1.33200200861   0  0  0
      199   1             5.4279974431        35.2662424976          2.563881996   0  0  0
      200   1             7.5831839448         35.262602739         3.7957838867   0  0  0
      201   1            1.83948330891        37.3047736374        1.34609977541   0  0  0
      202   1              3.994634632        37.3010451042         2.5779399386   0  0  0
      203   1             6.1498004404        37.2974053456          3.809782093   0  0  0
      204   1             8.3049455555         37.293765587         5.0416242474   0  0  0
      205   1            0.39574073853        33.2426254906        1.34315875824   0  0  0
      206   1             2.5509665575        33.2388969574         2.5750925083   0  0  0
      207   1             4.7061737525        33.2351684242         3.8070143111   0  0  0
      208   1             6.8614016408         33.231439891          5.038956026   0  0  0
      209   1            1.11762650903         35.273699564         2.5891305388   0  0  0
      210   1             3.2728109414        35.2699710308         3.8210125174   0  0  0
      211   1             5.4279974431        35.2662424976          5.052894496   0  0  0
      212   1            1.83948330891        37.3047736374         3.8351102842   0  0  0
      213   1              3.994634632        37.3010451042         5.0669524386   0  0  0
      214   1            0.39574073853        33.2426254906         3.8321632934   0  0  0
      215   1             2.5509665575        33.2388969574         5.0641050083   0  0  0
      216   1            1.11762650903         35.273699564         5.0781430388   0  0  0
      217   1             7.5831839448         35.262602739         6.2847963867   0  0  0
      218   1             6.1498004404        37.2974053456          6.298794593   0  0  0
      219   1             8.3049455555         37.293765587         7.5306367474   0  0  0
      220   1             4.7061737525        33.2351684242         6.2960268111   0  0  0
      221   1             6.8614016408         33.231439891          7.527968526   0  0  0
      222   1             3.2728109414        35.2699710308         6.3100250174   0  0  0
      223   1             5.4279974431        35.2662424976          7.541906996   0  0  0
      224   1             7.5831839448         35.262602739         8.7738088867   0  0  0
      225   1            1.83948330891        37.3047736374         6.3241227842   0  0  0
      226   1              3.994634632        37.3010451042         7.5559649386   0  0  0
      227   1             6.1498004404        37.2974053456          8.787807093   0  0  0
      228   1             8.3049455555         37.293765587        10.0196492474   0  0  0
      229   1            0.39574073853        33.2426254906         6.3211757934   0  0  0
      230   1             2.5509665575        33.2388969574         7.5531175083   0  0  0
      231   1             4.7061737525        33.2351684242         8.7850393111   0  0  0
      232   1             6.8614016408         33.231439891         10.016981026   0  0  0
      233   1            1.11762650903         35.273699564         7.5671555388   0  0  0
      234   1             3.2728109414        35.2699710308         8.7990375174   0  0  0
      235   1             5.4279974431        35.2662424976         10.030919496   0  0  0
      236   1            1.83948330891        37.3047736374         8.8131352842   0  0  0
      237   1              3.994634632        37.3010451042        10.0449774386   0  0  0
      238   1            0.39574073853        33.2426254906         8.8101882934   0  0  0
      239   1             2.5509665575        33.2388969574        10.0421300083   0  0  0
      240   1            1.11762650903         35.273699564        10.0561680388   0  0  0
      241   1             7.5831839448         35.262602739        11.2628213867   0  0  0
      242   1             6.1498004404        37.2974053456         11.276819593   0  0  0
      243   1             8.3049455555         37.293765587        12.5086617474   0  0  0
      244   1             4.7061737525        33.2351684242        11.2740518111   0  0  0
      245   1             6.8614016408         33.231439891         12.505993526   0  0  0
      246   1             3.2728109414        35.2699710308        11.2880500174   0  0  0
      247   1             5.4279974431        35.2662424976         12.519931996   0  0  0
      248   1             7.5831839448         35.262602739        13.7518338867   0  0  0
      249   1            1.83948330891        37.3047736374        11.3021477842   0  0  0
      250   1              3.994634632        37.3010451042        12.5339899386   0  0  0
      251   1             6.1498004404        37.2974053456         13.765832093   0  0  0
      252   1             8.3049455555         37.293765587        14.9976742474   0  0  0
      253   1            0.39574073853        33.2426254906        11.2992007934   0  0  0
      254   1             2.5509665575        33.2388969574        12.5311425083   0  0  0
      255   1             4.7061737525        33.2351684242        13.7630643111   0  0  0
      256   1             6.8614016408         33.231439891         14.995006026   0  0  0
      257   1            1.11762650903         35.273699564        12.5451805388   0  0  0
      258   1             3.2728109414        35.2699710308        13.7770625174   0  0  0
      259   1             5.4279974431        35.2662424976         15.008944496   0  0  0
      260   1            1.83948330891        37.3047736374        13.7911602842   0  0  0
      261   1              3.994634632        37.3010451042        15.0230024386   0  0  0
      262   1            0.39574073853        33.2426254906        13.7882132934   0  0  0
      263   1             2.5509665575        33.2388969574        15.0201550083   0  0  0
      264   1            1.11762650903         35.273699564        15.0341930388   0  0  0
      265   1             7.5831839448         35.262602739        16.2408463867   0  0  0
      266   1             6.1498004404        37.2974053456         16.254844593   0  0  0
      267   1             8.3049455555         37.293765587        17.4866867474   0  0  0
      268   1             4.7061737525        33.2351684242        16.2520768111   0  0  0
      269   1             6.8614016408         33.231439891         17.484018526   0  0  0
      270   1             3.2728109414        35.2699710308        16.2660750174   0  0  0
      271   1             5.4279974431        35.2662424976         17.497956996   0  0  0
      272   1             7.5831839448         35.262602739        18.7298588867   0  0  0
      273   1            1.83948330891        37.3047736374        16.2801727842   0  0  0
      274   1              3.994634632        37.3010451042        17.5120149386   0  0  0
      275   1             6.1498004404        37.2974053456         18.743857093   0  0  0
      276   1             8.3049455555         37.293765587       0.063600840368   0  0  0
      277   1            0.39574073853        33.2426254906        16.2772257934   0  0  0
      278   1             2.5509665575        33.2388969574        17.5091675083   0  0  0
      279   1             4.7061737525        33.2351684242        18.7410893111   0  0  0
      280   1             6.8614016408         33.231439891       0.060930627758   0  0  0
      281   1            1.11762650903         35.273699564        17.5232055388   0  0  0
      282   1             3.2728109414        35.2699710308        18.7550875174   0  0  0
      283   1             5.4279974431        35.2662424976       0.074877859082   0  0  0
      284   1            1.83948330891        37.3047736374        18.7691852842   0  0  0
      285   1              3.994634632        37.3010451042       0.088927637721   0  0  0
      286   1            0.39574073853        33.2426254906        18.7662382934   0  0  0
      287   1             2.5509665575        33.2388969574       0.086073835549   0  0  0
      288   1            1.11762650903         35.273699564       0.100117242316   0  0  0
      289   1             7.5933029685        41.3597310416        1.32355927821   0  0  0
      290   1             6.1599401574        43.3945336482        1.33779244729   0  0  0
      291   1             8.3150024993        43.3908938896         2.5694772961   0  0  0
      292   1             4.7164376293        39.3322079522        1.33487532464   0  0  0
      293   1             6.8715620511        39.3285681936           2.56666969   0  0  0
      294   1             3.2831162048        41.3670993334        1.34909455525   0  0  0
      295   1               5.43819924        41.3633708002         2.5808271931   0  0  0
      296   1             7.5933029685        41.3597310416          3.812569787   0  0  0
      297   1            1.84981340427          43.40190194        1.36343325846   0  0  0
      298   1             4.0048778155        43.3982621814         2.5951240809   0  0  0
      299   1             6.1599401574        43.3945336482         3.8268069385   0  0  0
      300   1             8.3150024993        43.3908938896         5.0584897961   0  0  0
      301   1            0.40618464704        39.3396650186        1.36030506755   0  0  0
      302   1             2.5613132075        39.3359364854         2.5920974417   0  0  0
      303   1             4.7164376293        39.3322079522         3.8238798598   0  0  0
      304   1             6.8715620511        39.3285681936           5.05568219   0  0  0
      305   1            1.12801454563        41.3708278666         2.6063744174   0  0  0
      306   1             3.2831162048        41.3670993334         3.8381170113   0  0  0
      307   1               5.43819924        41.3633708002         5.0698396931   0  0  0
      308   1            1.84981340427          43.40190194         3.8524537233   0  0  0
      309   1             4.0048778155        43.3982621814         5.0841365809   0  0  0
      310   1            0.40618464704        39.3396650186         3.8493275236   0  0  0
      311   1             2.5613132075        39.3359364854         5.0811099417   0  0  0
      312   1            1.12801454563        41.3708278666         5.0953869174   0  0  0
      313   1             7.5933029685        41.3597310416          6.301582287   0  0  0
      314   1             6.1599401574        43.3945336482         6.3158194385   0  0  0
      315   1             8.3150024993        43.3908938896         7.5475022961   0  0  0
      316   1             4.7164376293        39.3322079522         6.3128923598   0  0  0
      317   1             6.8715620511        39.3285681936           7.54469469   0  0  0
      318   1             3.2831162048        41.3670993334         6.3271295113   0  0  0
      319   1               5.43819924        41.3633708002         7.5588521931   0  0  0
      320   1             7.5933029685        41.3597310416          8.790594787   0  0  0
      321   1            1.84981340427          43.40190194         6.3414662233   0  0  0
      322   1             4.0048778155        43.3982621814         7.5731490809   0  0  0
      323   1             6.1599401574        43.3945336482         8.8048319385   0  0  0
      324   1             8.3150024993        43.3908938896        10.0365147961   0  0  0
      325   1            0.40618464704        39.3396650186         6.3383400236   0  0  0
      326   1             2.5613132075        39.3359364854         7.5701224417   0  0  0
      327   1             4.7164376293        39.3322079522         8.8019048598   0  0  0