LAMMPS (22 Aug 2018)
Processor partition = 4
# NEB for Au triple junction
# Yin Zhang
# March 25th, 2019

units			metal
boundary		p p p

atom_style		atomic
atom_modify		map array sort 0 0


read_data		init.in
  orthogonal box = (0 0 0) to (170 170 379.205)
  1 by 1 by 1 MPI processor grid
  reading atoms ...
  443580 atoms
pair_style		eam
pair_coeff		* * /home/yzhang951/Au_Al/Au_u3.eam
Reading potential file /home/yzhang951/Au_Al/Au_u3.eam with DATE: 2007-06-11

thermo			100
thermo_style	custom step etotal pxx pyy pzz pxy pyz pxz

variable		u equal part

dump			1 all cfg 1000 Au*_$u.cfg mass type xs ys zs
dump			1 all cfg 1000 Au*_4.cfg mass type xs ys zs
dump_modify		1 element Au sort id

fix				1 all neb 100
min_style		quickmin

neb				0 0.01 1000000 1000000 100 final final.in
WARNING: Using 'neigh_modify every 1 delay 0 check yes' setting during minimization (../min.cpp:168)
Neighbor list info ...
  update every 1 steps, delay 0 steps, check yes
  max neighbors/atom: 2000, page size: 100000
  master list distance cutoff = 7.55
  ghost atom cutoff = 7.55
  binsize = 3.775, bins = 46 46 101
  1 neighbor lists, perpetual/occasional/extra = 1 0 0
  (1) pair eam, perpetual
      attributes: half, newton on
      pair build: half/bin/atomonly/newton
      stencil: half/bin/3d/newton
      bin: standard
Per MPI rank memory allocation (min/avg/max) = 232.7 | 232.7 | 232.7 Mbytes
Step TotEng Pxx Pyy Pzz Pxy Pyz Pxz 
       0   -1717552.4    2854.0724    2752.8426    2989.0851   -625.50678    4.8965967    16.554862 
     100   -1725498.7     506.0836    685.21536     524.8435   -186.02901   -15.496333   -4.3959302 
     200   -1725669.5    406.56015    536.25022    409.54152   -190.32228   -35.182244    4.3296313 
     300   -1725774.4    337.62096    442.80614     329.2229   -198.19744   -51.155167    11.401227 
     400   -1725920.6    281.64077    377.16646    267.55332   -205.89032    -62.65024    15.821703 
     500   -1725971.1    245.14235    335.33883    227.26947   -211.36021   -71.304367    18.913573 
     600   -1726010.7     215.9296     303.3286    195.80862   -215.98191   -78.227961    20.615203 
     700   -1726069.2    192.42115    278.35806    171.17254   -219.76113   -82.651041    21.015111 
     800   -1726090.2    175.81011    259.25178    153.00154   -222.33399    -85.81048    20.469704 
     900   -1726125.4    159.24145     240.0843    135.63967   -224.43587   -87.957506    19.273775 
    1000   -1726140.8    147.52198    224.63165     122.9328    -225.2801   -89.288089    17.583349 
    1100   -1726153.9    137.03745    209.62403     111.3538   -225.27184   -90.211858    15.366921 
    1200   -1726177.1    126.61018    195.00762    100.27789   -224.86469   -90.707216    13.020029 
    1300   -1726186.8    119.80124    183.51437    92.059823   -224.01879   -90.855229    11.168498 
    1400   -1726194.9     113.6862    172.65963    84.381192   -222.85078   -90.762818    9.3974132 
    1500   -1726208.8    107.31298    162.21537    76.956657   -221.40542   -90.448004    7.7630741 
    1600   -1726215.2    102.56963    153.82172    71.294073   -219.72482   -89.871059    6.5523819 
    1700   -1726220.9    98.015118    146.12022    66.197575   -217.74284   -89.046167    5.5710214 
    1800   -1726231.1    93.160723    138.97244    61.343309   -215.74272   -88.111592    4.8289445 
    1900   -1726235.2    89.568277    133.62724     57.78377   -213.86708    -87.17062    4.3466144 
    2000   -1726239.1    85.989134    128.66546    54.407011   -211.86217   -86.141417    3.9232297 
    2100   -1726243.1    82.474882    124.22993    51.249943   -209.78708   -85.075695    3.5456494 
    2200   -1726249.2    79.077713    120.36573    48.345474   -207.92696   -84.141952    3.2376406 
    2300   -1726251.9     76.04965    117.11708    45.773654   -206.01168   -83.146086    2.8972842 
    2400   -1726256.5    72.679643    113.84825    43.082813   -204.05957   -82.148344    2.5464784 
    2500   -1726259.6    69.760851    111.14944    40.819993   -202.31831   -81.263564    2.2447128 
    2600   -1726262.1    66.805714    108.59366    38.660525    -200.5702   -80.368926     1.988324 
    2700   -1726264.4    63.775298    106.10843    36.538518   -198.86611    -79.44817     1.778713 
    2800   -1726268.8    60.732375    103.69411    34.454615   -197.35322   -78.641156    1.6245624 
    2900   -1726270.8    57.958437     101.5426    32.617315   -195.87354   -77.866386    1.5096121 
    3000   -1726272.6    55.102359    99.409872    30.774372   -194.39356   -77.096754    1.3961828 
    3100   -1726275.9     52.16792    97.239237    28.857151    -193.0616   -76.396179    1.2994215 
    3200   -1726277.4    49.491293     95.28282    27.126536   -191.81409   -75.752175    1.2008492 
    3300   -1726278.9    46.779337    93.310701    25.358472   -190.59545   -75.114699    1.0775101 
    3400   -1726281.8    44.165388    91.472428    23.630563   -189.50264   -74.515155   0.92742193 
    3500     -1726283    41.863442    89.944199    22.129225   -188.48931   -73.946398   0.80090973 
    3600   -1726284.2    39.538791    88.470392    20.631579   -187.51305   -73.373559   0.71093061 
    3700   -1726286.5    37.279822    87.053864    19.177785   -186.66523   -72.885997   0.63714002 
    3800   -1726287.6      35.1536    85.762526    17.816905   -185.86183   -72.400785   0.61606907 
    3900   -1726288.6    32.914382    84.409953    16.382478   -185.05332   -71.926157   0.61810683 
    4000   -1726290.7     30.68471    83.018866    14.971801   -184.32229   -71.506494   0.65905551 
    4100   -1726291.6    28.555208    81.718255    13.661539   -183.61171   -71.099346   0.71975063 
    4200   -1726292.6    26.341209    80.360364    12.300743   -182.92762   -70.715819   0.80935546 
    4300   -1726294.5    24.072174    78.938581    10.905726   -182.27435   -70.356549    0.9082976 
    4400   -1726295.5    22.066216    77.673292    9.6788991   -181.68152   -70.038174    1.0149535 
    4500   -1726296.4    20.052261     76.41572    8.4448062    -181.0609   -69.708191    1.1485929 
    4600     -1726298     18.02521    75.132637    7.1824138   -180.45042   -69.407315    1.3081314 
    4700   -1726298.9    16.231711    74.007702    6.0890491   -179.84978   -69.126494    1.4730696 
    4800   -1726299.6    14.496391    72.932459    5.0508057   -179.21866   -68.831466    1.6623412 
    4900     -1726301    12.684231    71.825693    3.9857815   -178.53939   -68.530535    1.8582343 
    5000   -1726301.7      11.1459    70.911157    3.1341498   -177.91158   -68.244188    2.0504676 
    5100   -1726302.4    9.5850889    69.995311    2.2847979   -177.22456    -67.93037    2.2502623 
    5200   -1726303.1    8.0239979    69.078241    1.4570583   -176.50639   -67.583429    2.4499983 
    5300   -1726304.5    6.5033524    68.212036   0.66616051    -175.8327    -67.23762    2.5957712 
    5400   -1726305.1    5.0802545    67.440557  -0.03730764   -175.18286    -66.84408    2.7204344 
    5500   -1726305.8     3.616216    66.694757  -0.71518639   -174.53526    -66.40532    2.8265253 
    5600   -1726306.9    2.2524509    66.006233   -1.3736541   -173.95694   -66.001378    2.9065051 
    5700   -1726307.4   0.95309398    65.348666   -1.9946463   -173.39577   -65.578163    2.9767248 
    5800   -1726308.5  -0.38684914    64.591255   -2.6427302   -172.86055   -65.168027    3.0345013 
    5900     -1726309   -1.5506882    63.912669   -3.1740053   -172.37768   -64.787039    3.0853242 
    6000   -1726309.5   -2.7156012    63.183325   -3.6826305   -171.92091   -64.433901    3.1248933 
    6100     -1726310   -3.8692625    62.437367   -4.1847809   -171.46346   -64.094419    3.1683293 
    6200   -1726310.9   -4.9862444    61.690197   -4.6887095   -171.05386   -63.788503    3.2177661 
    6300   -1726311.3   -6.0207524     60.95225    -5.153693   -170.65338   -63.510804    3.2498805 
    6400   -1726311.7   -7.0717661    60.193098   -5.6092626   -170.25338   -63.235675    3.2972324 
    6500   -1726312.4   -8.1470892    59.401364   -6.1004764   -169.85603   -62.980507    3.3536923 
    6600   -1726312.8   -9.0893719    58.699769    -6.510344   -169.48983   -62.764403    3.4089358 
    6700   -1726313.1    -10.07069    57.979496   -6.9348479   -169.10377   -62.549734    3.4646351 
    6800   -1726313.8   -11.054797    57.265684   -7.3878568    -168.7475   -62.351384    3.5287756 
    6900   -1726314.1   -11.926492    56.654902   -7.7580432   -168.40383   -62.171313    3.5960268 
    7000   -1726314.5   -12.797573    56.068174   -8.1209179   -168.05166   -61.989734    3.6588614 
    7100   -1726315.1   -13.662747    55.506437    -8.502469   -167.72394   -61.824097    3.7345159 
    7200   -1726315.4   -14.443454    55.020671   -8.8339616   -167.41942   -61.663327    3.7968787 
    7300   -1726315.7   -15.231501    54.578646   -9.1597257   -167.11013   -61.497281    3.8703812 
    7400   -1726316.2   -16.026714    54.132923    -9.488861   -166.80104   -61.326481    3.9519604 
    7500   -1726316.6   -16.744378    53.730594   -9.7858432   -166.52633   -61.174627    4.0334171 
    7600   -1726316.9   -17.436309    53.370309   -10.045692   -166.26233   -61.013334    4.1223891 
    7700   -1726317.2   -18.133607    53.006524   -10.310859   -165.99219   -60.843708    4.2145476 
    7800   -1726317.8   -18.847766    52.626685   -10.609353   -165.71933   -60.684782    4.3067205 
    7900   -1726318.1   -19.448203    52.281141   -10.825355   -165.45977   -60.527236     4.399995 
    8000   -1726318.3   -20.046504    51.943136    -11.02275   -165.18627   -60.363345    4.5069403 
    8100   -1726318.9   -20.658683    51.588428   -11.237657   -164.89318   -60.189398    4.6144228 
    8200   -1726319.1   -21.177681    51.301224   -11.397624   -164.60722   -60.011537    4.7243924 
    8300   -1726319.4   -21.710023     51.02059   -11.558882   -164.29272   -59.824292    4.8430928 
    8400   -1726319.7   -22.258808    50.741639   -11.712636   -163.96378   -59.623721    4.9653722 
    8500   -1726320.2   -22.798936    50.477748   -11.898499   -163.64283   -59.433164    5.0941285 
    8600   -1726320.5    -23.28199    50.267397   -12.056054   -163.32447    -59.26123    5.2066099 
    8700   -1726320.7   -23.785243    50.066841   -12.223557    -162.9919   -59.068411    5.3167103 
    8800   -1726320.9   -24.296439    49.878377   -12.381548    -162.6356   -58.869709    5.4321313 
    8900   -1726321.4   -24.814299    49.695782   -12.556368   -162.26804    -58.67361     5.535094 
    9000   -1726321.7   -25.272477    49.550374   -12.686493   -161.89648    -58.47659     5.624888 
    9100   -1726321.9   -25.730714    49.432873   -12.796914   -161.50024   -58.255066    5.7069487 
    9200   -1726322.4   -26.188355    49.311624   -12.927081    -161.0931   -58.025656    5.7915103 
    9300   -1726322.6   -26.588331    49.232879   -13.020988   -160.71596   -57.798266    5.8738394 
    9400   -1726322.8   -26.994254     49.15166   -13.111797   -160.31609   -57.541458    5.9673532 
    9500   -1726323.2   -27.413269     49.02172   -13.221246   -159.93856   -57.302248    6.0520787 
    9600   -1726323.4   -27.800812    48.890989   -13.317791   -159.56018   -57.046625    6.1332804 
    9700   -1726323.6   -28.182322    48.750729   -13.391646   -159.16095   -56.778313    6.2150458 
    9800     -1726324   -28.560553     48.58833   -13.493727   -158.79354   -56.529192    6.2945949 
    9900   -1726324.2   -28.892412    48.450455   -13.557708   -158.41342   -56.269301    6.3708178 
   10000   -1726324.3   -29.241132    48.311621   -13.622404   -158.01978   -55.994301    6.4445355 
   10100   -1726324.7   -29.608881    48.143707   -13.698833   -157.61243   -55.726122    6.5132245 
   10200   -1726324.8    -29.92103    48.021722    -13.74031   -157.22168   -55.475916     6.572253 
   10300     -1726325   -30.236139    47.903592   -13.771466   -156.80332   -55.213537     6.626715 
   10400   -1726325.3   -30.556758    47.782017   -13.805503   -156.40066   -54.967456    6.6765098 
   10500   -1726325.4   -30.853277    47.661447   -13.830664   -155.98768    -54.70963    6.7133807 
   10600   -1726325.7   -31.146503    47.555379    -13.86163   -155.56001   -54.451158    6.7473229 
   10700   -1726325.9   -31.422099    47.461011   -13.874198   -155.12669   -54.198304    6.7715362 
   10800   -1726326.2   -31.723829    47.340264   -13.910276   -154.67286   -53.938023    6.7983953 
   10900   -1726326.3   -31.960649    47.243199   -13.932974   -154.23529   -53.692876    6.8234566 
   11000   -1726326.5   -32.190995    47.135493   -13.930064   -153.76272   -53.437191    6.8454406 
   11100   -1726326.8   -32.426198    47.016165   -13.936607    -153.2832   -53.173076    6.8694202 
   11200   -1726326.9   -32.634772    46.927345    -13.93082   -152.79027   -52.908041    6.8850472 
   11300   -1726327.1   -32.852233    46.840233   -13.923815   -152.25391   -52.621709    6.9015861 
   11400   -1726327.4   -33.069482    46.755764   -13.916157   -151.73624   -52.347145    6.9108649 
   11500   -1726327.6    -33.28748    46.695517    -13.89816   -151.17843   -52.040193    6.9248084 
   11600   -1726327.9   -33.551715    46.637798    -13.91267   -150.62522   -51.740084    6.9462852 
   11700   -1726328.1   -33.785027    46.607285   -13.908093   -150.06333   -51.430912    6.9633596 
   11800   -1726328.5   -34.061044    46.547776   -13.938729   -149.49395   -51.093135    6.9830914 
   11900   -1726328.6   -34.289442    46.526778   -13.931434   -148.96946   -50.764175    7.0075067 
   12000   -1726328.8   -34.539021     46.50106   -13.919835   -148.41126   -50.403706    7.0266758 
   12100   -1726329.2     -34.7815    46.452607   -13.915222   -147.88327   -50.049948    7.0529799 
   12200   -1726329.3   -35.000401    46.430628    -13.88971   -147.37791   -49.698801     7.078034 
   12300   -1726329.5   -35.238784     46.38537   -13.865617   -146.85302   -49.333862     7.104508 
   12400   -1726329.8   -35.486558    46.328777   -13.845698   -146.35121   -48.980201    7.1377116 
   12500   -1726329.9    -35.70596    46.290157   -13.804006   -145.86938   -48.635762    7.1669904 
   12600     -1726330   -35.917149     46.24983   -13.750659   -145.38676   -48.283797      7.19634 
   12700   -1726330.3   -36.145142    46.173702    -13.71279   -144.93853   -47.944791    7.2285498 
   12800   -1726330.5   -36.354402    46.121781   -13.661731   -144.51507   -47.603043    7.2605857 
   12900   -1726330.6   -36.564905    46.047535   -13.606211   -144.09987   -47.254115    7.2947361 
   13000   -1726330.9   -36.780771    45.967076   -13.549833   -143.69905   -46.924591    7.3263878 
   13100     -1726331    -36.94719    45.902463   -13.479891   -143.33832   -46.604734    7.3431043 
   13200   -1726331.2   -37.118675     45.82355   -13.398564    -142.9835   -46.279019    7.3621998 
   13300   -1726331.3   -37.286402    45.744616   -13.304658   -142.63627   -45.945794    7.3776358 
   13400   -1726331.6   -37.457225    45.654269   -13.234682   -142.33068   -45.638903    7.3824527 
   13500   -1726331.7   -37.608331    45.555119   -13.139372   -142.04113   -45.323916    7.3819758 
   13600   -1726331.9    -37.75392    45.456964    -13.03476   -141.74694   -44.999762    7.3883285 
   13700   -1726332.1   -37.880392     45.34304   -12.944256   -141.50037   -44.693504    7.3917036 
   13800   -1726332.3   -37.975395    45.235787   -12.835447   -141.26775   -44.381187    7.3819795 
   13900   -1726332.6   -38.087667    45.107026   -12.740927   -141.05564   -44.068549    7.3606968 
   14000   -1726332.7   -38.165371    44.975105    -12.64697   -140.86278   -43.769254     7.327808 
   14100   -1726332.9   -38.254804    44.834668   -12.553086   -140.67961   -43.467096    7.2787377 
   14200   -1726333.2   -38.346712    44.676788   -12.490017   -140.50246   -43.176415     7.232553 
   14300   -1726333.4   -38.399161    44.539294   -12.402733   -140.33998   -42.898405    7.1863344 
   14400   -1726333.8    -38.49795    44.354552   -12.353239    -140.1705   -42.628816    7.1493404 
   14500   -1726333.9   -38.564337    44.176816   -12.312561   -140.01592   -42.384005    7.1067031 
   14600   -1726334.1   -38.634552    43.977878   -12.272986   -139.86433   -42.139537    7.0692286 
   14700   -1726334.4   -38.728894    43.755859   -12.258911    -139.7217    -41.91997    7.0492109 
   14800   -1726334.6   -38.805401    43.547597   -12.225563   -139.58858   -41.726459    7.0341424 
   14900   -1726334.7    -38.89677    43.318755   -12.180009   -139.44934   -41.537602    7.0199153 
   15000     -1726335   -39.001937    43.121083   -12.136381    -139.3237   -41.377631    7.0168258 
   15100   -1726335.2   -39.082395    42.927373   -12.063186   -139.18931   -41.225473    7.0153019 
   15200   -1726335.4    -39.17097    42.727951   -11.985511   -139.05262   -41.081843    7.0207987 
   15300   -1726335.6   -39.262328    42.534483   -11.919074   -138.91479   -40.956637    7.0260604 
   15400   -1726335.8   -39.338521    42.342376   -11.850601   -138.76257   -40.836162    7.0245779 
   15500   -1726336.1   -39.455812    42.106911   -11.809725   -138.60176   -40.740043    7.0406792 
   15600   -1726336.2   -39.544033    41.885701   -11.757592   -138.43648   -40.655749    7.0555694 
   15700   -1726336.4   -39.645336     41.63346   -11.709013   -138.25255   -40.589472    7.0803351 
   15800   -1726336.7   -39.760777    41.356802   -11.691232   -138.06141   -40.538969    7.1180372 
   15900   -1726336.8   -39.857679    41.094334   -11.673439   -137.86005   -40.498057    7.1536465 
   16000   -1726336.9   -39.961056    40.796662     -11.6568   -137.64598   -40.472097    7.1992712 
   16100   -1726337.1   -40.074232    40.488804    -11.65199   -137.43057   -40.459626    7.2516679 
   16200   -1726337.2   -40.156354    40.225481   -11.632915   -137.20632   -40.447854    7.3069973 
   16300   -1726337.4   -40.228855    39.945774   -11.610582   -136.96236   -40.447042    7.3673427 
   16400   -1726337.6   -40.293631    39.688484   -11.581274   -136.72178    -40.45915    7.4202492 
   16500   -1726337.7   -40.343917    39.454682   -11.548798   -136.46118   -40.473958    7.4685727 
   16600   -1726337.9   -40.396415    39.215356   -11.526483    -136.1885   -40.498458    7.5256989 
   16700   -1726338.1    -40.45219    39.003504   -11.502534   -135.93365   -40.521704    7.5750291 
   16800   -1726338.2   -40.481085    38.803299   -11.467235   -135.66296   -40.554076    7.6203752 
   16900   -1726338.4   -40.516699     38.60526   -11.442488   -135.38138   -40.582695    7.6642756 
   17000   -1726338.5   -40.543627    38.404046   -11.417646   -135.09306   -40.615276    7.7030937 
   17100   -1726338.7   -40.570651    38.198931   -11.404109   -134.77245   -40.654699    7.7420095 
   17200   -1726338.8   -40.597426    38.008132   -11.379028   -134.45942   -40.689709    7.7835091 
   17300   -1726338.9   -40.621979    37.795694   -11.360677   -134.11072   -40.731841    7.8312093 
   17400   -1726339.1   -40.663964    37.573055   -11.361158   -133.77252   -40.771959    7.8784226 
   17500   -1726339.2   -40.702667    37.347937   -11.354893   -133.39962   -40.819853    7.9327708 
   17600   -1726339.4   -40.741282     37.13432   -11.354371   -133.02406   -40.877095    7.9874437 
   17700   -1726339.5   -40.779248    36.931256   -11.337522   -132.63349   -40.934033    8.0416217 
   17800   -1726339.6   -40.837149     36.71075   -11.329895   -132.21852   -40.997423    8.1072393 
   17900   -1726339.7   -40.873723    36.541115    -11.30362   -131.81616   -41.059886    8.1699232 
   18000   -1726339.8    -40.90782    36.356992   -11.265173   -131.37544   -41.133008    8.2384995 
   18100     -1726340   -40.949627    36.168872   -11.233239   -130.93137   -41.206534    8.3027822 
   18200   -1726340.1   -40.979185    35.985787   -11.198944   -130.47677   -41.284075    8.3608593 
   18300   -1726340.2   -41.013474    35.798271   -11.161897   -129.99007   -41.367304    8.4233811 
   18400   -1726340.4     -41.0361    35.623528   -11.127335   -129.53889   -41.450332    8.4760089 
   18500   -1726340.5   -41.058661    35.448505   -11.097027   -129.06614   -41.544357    8.5406483 
   18600   -1726340.5   -41.091222    35.256603   -11.066228   -128.57851    -41.65635    8.6056571 
   18700   -1726340.7   -41.125853    35.062262   -11.053242   -128.11697   -41.768815    8.6608565 
   18800   -1726340.8   -41.151795    34.884274   -11.028479   -127.66536   -41.893781    8.7177004 
   18900   -1726340.9   -41.182215    34.706176   -10.995374   -127.20184   -42.030157    8.7765537 
   19000   -1726341.1   -41.214333    34.531305   -10.970644   -126.73819   -42.168312    8.8337014 
   19100   -1726341.1   -41.234725    34.366299   -10.942138   -126.30013   -42.304706    8.8897506 
   19200   -1726341.2   -41.264711     34.18767   -10.916985   -125.83996   -42.448685    8.9526041 
   19300   -1726341.4   -41.304427    34.004221   -10.898598   -125.39237   -42.598553    9.0122386 
   19400   -1726341.4   -41.333022    33.830927   -10.873585   -124.94291   -42.743782    9.0698543 
   19500   -1726341.5    -41.36788    33.659736   -10.835048   -124.48284   -42.898664    9.1275616 
   19600   -1726341.6   -41.402655    33.490657   -10.789856   -124.01513   -43.062568    9.1827319 
   19700   -1726341.8     -41.4482    33.327956   -10.753199   -123.56384   -43.214928    9.2371268 
   19800   -1726341.9   -41.478487    33.181423   -10.713977   -123.14067   -43.366158    9.2874201 
   19900   -1726341.9   -41.499304    33.040754   -10.664177   -122.70719   -43.523076    9.3424157 
   20000   -1726342.1   -41.515829    32.882896   -10.629869   -122.26631   -43.683683    9.4007918 
   20100   -1726342.2   -41.518849    32.755698   -10.588634   -121.86117   -43.839601    9.4557706 
   20200   -1726342.2   -41.514994    32.620775   -10.540621   -121.44554   -44.001681    9.5171775 
   20300   -1726342.3   -41.512108    32.483313   -10.503892    -121.0141   -44.178768    9.5843645 
   20400   -1726342.4   -41.517514    32.344418    -10.47242   -120.62377   -44.341416    9.6482108 
   20500   -1726342.5   -41.515493    32.208804   -10.437677   -120.21399   -44.512141    9.7101024 
   20600   -1726342.6    -41.50996    32.072353   -10.393577   -119.79619   -44.689277    9.7747929 
   20700   -1726342.7   -41.505942    31.946666   -10.359447   -119.40261   -44.865239    9.8363935 
   20800   -1726342.8   -41.506471    31.825917   -10.313982   -119.01796   -45.049492    9.8954586 
   20900   -1726342.8   -41.510166    31.703653   -10.259445   -118.61733   -45.238093    9.9573112 
   21000   -1726342.9   -41.507352    31.582894   -10.207461   -118.21067   -45.428295    10.019912 
   21100   -1726343.1   -41.507015    31.458939   -10.163891   -117.82895   -45.605825    10.078769 
   21200   -1726343.1   -41.503456    31.353066   -10.105514   -117.44805   -45.782514    10.133657 
   21300   -1726343.2   -41.489171    31.246188   -10.038454    -117.0501   -45.964631    10.188508 
   21400   -1726343.3   -41.476089    31.132296   -9.9767087   -116.64344   -46.149096    10.246715 
   21500   -1726343.4   -41.467051    31.021341   -9.9157614    -116.2647    -46.32261    10.303157 
   21600   -1726343.5   -41.459497    30.899714    -9.848945   -115.86234   -46.503709    10.368695 
   21700   -1726343.6   -41.463468    30.763187   -9.7833983   -115.45822   -46.673503    10.428079 
   21800   -1726343.7   -41.467169    30.633805   -9.7108734   -115.06541   -46.842421    10.491547 
   21900   -1726343.8   -41.467011    30.486418   -9.6385372   -114.64732   -47.022329    10.563287 
   22000   -1726343.9   -41.473404    30.360098   -9.5729429   -114.26189   -47.196477      10.6301 
   22100     -1726344   -41.472555    30.243446   -9.4884051   -113.85575   -47.376538    10.706005 
   22200   -1726344.2   -41.487857    30.115887   -9.4049059   -113.45499    -47.55614    10.784769 
   22300   -1726344.3   -41.498425    30.006171   -9.3144371   -113.07513   -47.723844    10.869511 
   22400   -1726344.3   -41.514204    29.879961   -9.2230955   -112.68008   -47.903195    10.957501 
   22500   -1726344.5   -41.541455    29.751363   -9.1374851   -112.28586   -48.077294    11.047549 
   22600   -1726344.6    -41.56463    29.638423   -9.0356014   -111.91499    -48.23321    11.143209 
   22700   -1726344.7   -41.590816    29.520257   -8.9390039   -111.53953    -48.38698    11.246238 
   22800   -1726344.8   -41.609652    29.413567   -8.8273388   -111.14972   -48.544711    11.357305 
   22900     -1726345   -41.638562    29.305421    -8.741503   -110.77685   -48.695983    11.460227 
   23000   -1726345.1   -41.657579    29.196854    -8.642317   -110.40805   -48.842262    11.563091 
   23100   -1726345.3   -41.684289    29.074055   -8.5522211   -110.02225   -49.001492    11.667551 
   23200   -1726345.4   -41.697807    28.953064   -8.4755587   -109.66538   -49.155396    11.756345 
   23300   -1726345.6   -41.684209     28.83012   -8.3940332   -109.29313   -49.317178    11.840947 
   23400   -1726345.8   -41.684111    28.696323   -8.3488107    -108.9175   -49.471754    11.914326 
   23500   -1726345.9   -41.661666    28.566363   -8.3066704   -108.54787   -49.630141    11.982704 
   23600     -1726346   -41.639527    28.413832   -8.2882383   -108.14835   -49.800653    12.049271 
   23700   -1726346.2   -41.608869    28.272014   -8.2771559    -107.7823   -49.960505    12.107125 
   23800   -1726346.3   -41.572176     28.12027   -8.2686637   -107.38716   -50.134911    12.165811 
   23900   -1726346.4   -41.551497    27.949591   -8.2837006   -106.99206   -50.303863    12.223703 
   24000   -1726346.5   -41.520859    27.784075   -8.2908765    -106.6002   -50.478541    12.284338 
   24100   -1726346.6   -41.494616     27.60557   -8.3061124   -106.17794   -50.669891    12.351437 
   24200   -1726346.7   -41.471594     27.43979   -8.3192432   -105.78927    -50.84922    12.410104 
   24300   -1726346.8   -41.444009    27.269464   -8.3308138    -105.3824   -51.033206    12.477866 
   24400   -1726346.9    -41.42317     27.08652   -8.3548987   -104.96116   -51.235643    12.541868 
   24500     -1726347   -41.404349    26.912725   -8.3778016   -104.57034   -51.428738    12.607963 
   24600     -1726347   -41.374675    26.744819   -8.3939565   -104.16315   -51.629283    12.677828 
   24700   -1726347.2   -41.345758    26.578437   -8.4216074    -103.7576   -51.832166    12.746502 
   24800   -1726347.2   -41.312749    26.406153    -8.444819   -103.36333   -52.034675    12.813625 
   24900   -1726347.3   -41.280794    26.229894   -8.4727888    -102.9485   -52.248685    12.886657 
   25000   -1726347.4   -41.258127    26.056948      -8.5051   -102.56017   -52.454476    12.953394 
   25100   -1726347.5   -41.225885    25.881255   -8.5286373   -102.16544    -52.66559    13.020315 
   25200   -1726347.6   -41.191379    25.701316   -8.5555936   -101.76467   -52.885032    13.089216 
   25300   -1726347.6   -41.155094    25.530655   -8.5810596   -101.37634   -53.096997    13.155532 
   25400   -1726347.7   -41.111891    25.355822    -8.595835   -100.97231   -53.322128    13.224004 
   25500   -1726347.8   -41.075814    25.186201   -8.6156748   -100.59016   -53.540019    13.283299 
   25600   -1726347.9   -41.020324    25.026463   -8.6293933   -100.20091   -53.755935     13.34952 
   25700     -1726348   -40.972422    24.840625   -8.6609105   -99.811063   -53.977883    13.411563 
   25800     -1726348   -40.918051    24.678414   -8.6783186   -99.439785   -54.193417    13.472336 
   25900   -1726348.1   -40.872621    24.506491   -8.7107082   -99.040337   -54.416775     13.53662 
   26000   -1726348.2   -40.832256    24.335584   -8.7414599   -98.662087   -54.617187    13.593999 
   26100   -1726348.3   -40.804912    24.169225   -8.7703369   -98.272721   -54.818774    13.657627 
   26200   -1726348.5   -40.779583     23.99599    -8.789106   -97.875485   -55.016731     13.71458 
   26300   -1726348.6   -40.749358    23.855868   -8.7708105   -97.494964   -55.203189    13.768689 
   26400   -1726348.7   -40.714995    23.704081   -8.7223108   -97.098493   -55.409616    13.830725 
   26500   -1726348.8   -40.677838    23.571557   -8.6617746   -96.733244    -55.60835    13.891946 
   26600   -1726348.9   -40.635588    23.416958   -8.5974717   -96.334168   -55.824713    13.962562 
   26700   -1726349.1   -40.590632    23.250516   -8.5607549   -95.948866   -56.032464    14.028703 
   26800   -1726349.1   -40.538948    23.077401    -8.516255   -95.552637   -56.250859    14.097595 
   26900   -1726349.2   -40.489666    22.884624   -8.4889069   -95.140125   -56.474149    14.163127 
   27000   -1726349.3   -40.432781    22.710475   -8.4653745   -94.751801     -56.6807    14.224227 
   27100   -1726349.4   -40.384678    22.523594   -8.4421422   -94.345218   -56.901855     14.28509 
   27200   -1726349.4   -40.335999    22.342647    -8.420467   -93.928978   -57.126838    14.351172 
   27300   -1726349.6   -40.292607    22.154936   -8.4126445    -93.51825   -57.344917    14.414511 
   27400   -1726349.6   -40.238484    21.989788   -8.3960681   -93.123791   -57.547427    14.472156 
   27500   -1726349.7   -40.180352    21.821705   -8.3803281   -92.716424   -57.767787    14.539175 
   27600   -1726349.8   -40.122092    21.638581   -8.3740949   -92.292088   -57.990285    14.604271 
   27700   -1726349.8   -40.066805    21.471582    -8.360216   -91.897979   -58.197215    14.662622 
   27800   -1726349.9   -40.006811    21.297898   -8.3486556   -91.488535   -58.407053    14.719081 
   27900   -1726349.9   -39.938621     21.12523   -8.3380029   -91.061038    -58.62597    14.781028 
   28000     -1726350   -39.874231    20.958001   -8.3300772   -90.657223   -58.832113    14.837692 
   28100   -1726350.1   -39.804929    20.789659   -8.3164532   -90.250583   -59.041975    14.895057 
   28200   -1726350.1    -39.72409    20.616609   -8.2973173   -89.821256   -59.263791    14.955112 
   28300   -1726350.2   -39.653642     20.43296   -8.2961119   -89.409814   -59.476867    15.008812 
   28400   -1726350.3   -39.577192    20.262194   -8.2768957   -89.000294   -59.685669    15.061928 
   28500   -1726350.3   -39.503001    20.082938    -8.255138   -88.574483   -59.907155    15.115852 
   28600   -1726350.4   -39.429331    19.918338    -8.234452   -88.146818   -60.122786    15.172745 
   28700   -1726350.5   -39.360265    19.750124   -8.2048006    -87.73149   -60.324951    15.223349 
   28800   -1726350.5   -39.287899    19.578718   -8.1750208   -87.298405   -60.535773    15.276866 
   28900   -1726350.6   -39.222483    19.407203   -8.1520774   -86.859098   -60.749843    15.332929 
   29000   -1726350.7   -39.163453    19.256899    -8.120308   -86.447694   -60.953897    15.381681 
   29100   -1726350.7   -39.101238     19.10905   -8.0845761   -86.015098   -61.163027    15.432787 
   29200   -1726350.8   -39.050069    18.944802   -8.0469623   -85.574125   -61.380303    15.482398 
   29300   -1726350.9   -39.009237    18.792993   -8.0055662    -85.15468   -61.587911    15.530996 
   29400     -1726351   -38.962205    18.642674   -7.9516277    -84.72244   -61.804035    15.573766 
   29500     -1726351   -38.921493    18.495827   -7.8941889   -84.279597   -62.025216    15.616787 
   29600   -1726351.1   -38.885842    18.350196   -7.8431103   -83.851719   -62.238482    15.657143 
   29700   -1726351.2   -38.855207    18.212471   -7.7991071   -83.429336   -62.451763     15.69573 
   29800   -1726351.3   -38.832148    18.074216    -7.749927   -82.997854   -62.662806    15.735836 
   29900   -1726351.3   -38.803332    17.941535   -7.6992575    -82.55301   -62.881673    15.774517 
   30000   -1726351.5   -38.777935    17.809883   -7.6683283   -82.109293   -63.092853    15.809985 
   30100   -1726351.5   -38.760463    17.694135   -7.6375872   -81.688021   -63.290671    15.836494 
   30200   -1726351.6   -38.748813    17.575574   -7.6082037   -81.245906   -63.491657    15.859728 
   30300   -1726351.8   -38.752571    17.438173   -7.5924057    -80.81065   -63.688679    15.875518 
   30400   -1726351.9   -38.756466    17.323947   -7.5675008   -80.404286   -63.875492    15.879306 
   30500   -1726351.9   -38.753982    17.207843   -7.5395283   -79.989478   -64.073377    15.882536 
   30600     -1726352    -38.75175     17.08002   -7.5037912   -79.566108   -64.280096    15.879097 
   30700   -1726352.2    -38.76057    16.965275   -7.4816104   -79.174884    -64.47029    15.875447 
   30800   -1726352.3   -38.754136    16.876438     -7.43474   -78.797293   -64.653515     15.87074 
   30900   -1726352.3   -38.738218    16.785221   -7.3873046   -78.413093   -64.847526    15.870939 
   31000   -1726352.4   -38.721781    16.714234   -7.3357043   -78.025831   -65.042753    15.867715 
   31100   -1726352.5   -38.702233    16.648327   -7.2817904   -77.655617   -65.227588    15.872251 
   31200   -1726352.6   -38.680581    16.593604   -7.2264713   -77.293078   -65.404134    15.878831 
   31300   -1726352.7    -38.64997    16.545562   -7.1690814   -76.918169   -65.583612    15.883641 
   31400   -1726352.7   -38.615651    16.514206   -7.1142775   -76.535712   -65.755635    15.893127 
   31500   -1726352.8   -38.577698    16.496437   -7.0606703   -76.177729   -65.912802    15.904006 
   31600   -1726352.9   -38.537252    16.485699    -6.997902   -75.812155   -66.064104    15.915118 
   31700   -1726352.9   -38.488172    16.479907   -6.9345161   -75.432014   -66.220271    15.919736 
   31800     -1726353   -38.450182    16.472389   -6.8868915   -75.069167   -66.370194    15.926616 
   31900   -1726353.1    -38.40618    16.464155   -6.8297103    -74.70574    -66.50914      15.9374 
   32000   -1726353.1   -38.365151    16.443753   -6.7697255   -74.332444   -66.658621    15.951218 
   32100   -1726353.2   -38.319536    16.433427   -6.7175426   -73.987134   -66.800246    15.962526 
   32200   -1726353.2   -38.285646    16.424068   -6.6641012   -73.640365   -66.936787     15.97196 
   32300   -1726353.3   -38.246874    16.420252   -6.6119269   -73.284598    -67.07653    15.987988 
   32400   -1726353.4   -38.208478    16.422365   -6.5629096   -72.951675   -67.209945    16.004703 
   32500   -1726353.4    -38.16402    16.429704    -6.514285   -72.610657   -67.343414    16.021143 
   32600   -1726353.5   -38.121286    16.433355   -6.4646829   -72.264442   -67.478529    16.042087 
   32700   -1726353.5   -38.076521     16.43912   -6.4121418   -71.941721   -67.608034    16.065091 
   32800   -1726353.6    -38.02677    16.438469   -6.3661056   -71.603642    -67.74767    16.088586 
   32900   -1726353.7   -37.979665    16.440542   -6.3239029   -71.280318   -67.884017    16.112271 
   33000   -1726353.7   -37.929253    16.447204   -6.2806677   -70.962218    -68.01926    16.138538 
   33100   -1726353.8   -37.877673    16.449293   -6.2399247   -70.624849   -68.162821    16.163244 
   33200   -1726353.8   -37.825576    16.451609   -6.1990302   -70.312541   -68.299226     16.18536 
   33300   -1726353.9   -37.770959    16.450849   -6.1536812   -69.984764    -68.44484    16.206485 
   33400     -1726354   -37.713839    16.449579   -6.1153056   -69.653858   -68.593591    16.223644 
   33500     -1726354   -37.656345      16.4465   -6.0787661    -69.33983   -68.732784    16.242832 
   33600     -1726354   -37.599209    16.440883   -6.0402231   -69.016749   -68.880125    16.265428 
   33700   -1726354.1   -37.549515    16.423898   -6.0098516   -68.687916    -69.03032    16.287007 
   33800   -1726354.1   -37.497628     16.41001   -5.9741515   -68.378445   -69.173549     16.30858 
   33900   -1726354.2   -37.445893    16.389475   -5.9400745   -68.058319    -69.32507      16.3344 
   34000   -1726354.2   -37.389088    16.367118    -5.908111   -67.738511    -69.47726    16.357438 
   34100   -1726354.3    -37.33343    16.347463   -5.8777893   -67.438275   -69.625305    16.380619 
   34200   -1726354.3   -37.273864    16.324462   -5.8465277   -67.125959    -69.78037    16.407595 
   34300   -1726354.4   -37.215456    16.300636    -5.818756   -66.818621   -69.935936    16.431952 
   34400   -1726354.4   -37.161276    16.271839   -5.7944625   -66.517917   -70.083473    16.457471 
   34500   -1726354.4   -37.097231    16.244239   -5.7656541   -66.206959    -70.23765      16.4808 
   34600   -1726354.5   -37.034821    16.215281   -5.7433717   -65.906254   -70.389983    16.504172 
   34700   -1726354.5   -36.975111    16.180529   -5.7179762   -65.613847   -70.540056    16.524916 
   34800   -1726354.5    -36.91274    16.144325    -5.694334   -65.309478    -70.69883    16.550689 
   34900   -1726354.6   -36.846372    16.112506   -5.6694437   -65.003762   -70.860873    16.575447 
   35000   -1726354.6   -36.786398    16.083057   -5.6420737   -64.721986   -71.014696    16.601585 
   35100   -1726354.7   -36.720525    16.048069   -5.6110972   -64.430362   -71.173333    16.624728 
   35200   -1726354.7   -36.651677    16.016996   -5.5785787   -64.133443   -71.337672    16.649664 
   35300   -1726354.7   -36.582697    15.978532   -5.5513031   -63.836686    -71.50552    16.675632 
   35400   -1726354.8   -36.511072    15.948746   -5.5206361   -63.559173   -71.666311    16.699918 
   35500   -1726354.8   -36.442713    15.919804   -5.4858897   -63.270588   -71.829766    16.723322 
   35600   -1726354.8   -36.366895    15.887384   -5.4550401   -62.974104   -72.001531     16.74932 
   35700   -1726354.9   -36.296685    15.851365   -5.4230374   -62.704598   -72.164569    16.766876 
   35800   -1726354.9   -36.224324    15.820001   -5.3867322   -62.422941   -72.335345    16.789169 
   35900     -1726355   -36.152891    15.788012   -5.3538085   -62.137124   -72.510499    16.812322 
   36000     -1726355   -36.081406     15.75989   -5.3162597   -61.870452   -72.679864    16.835206 
   36100     -1726355   -36.000842    15.731993   -5.2775221    -61.59018   -72.854439    16.858172 
   36200   -1726355.1   -35.920969    15.694904   -5.2426669   -61.315042   -73.028305    16.881572 
   36300   -1726355.1   -35.846092    15.665143   -5.2040136   -61.051382   -73.197519    16.905984 
   36400   -1726355.1   -35.762799    15.638703   -5.1597553   -60.776656   -73.375295    16.931951 
   36500   -1726355.2   -35.687604    15.606761   -5.1221885   -60.516505   -73.549294    16.957928 
   36600   -1726355.2   -35.611275    15.585433   -5.0809018   -60.256886   -73.718549    16.982397 
   36700   -1726355.2   -35.540519    15.561484   -5.0415698   -59.986244   -73.892643    17.008099 
   36800   -1726355.3   -35.469932    15.541138   -4.9986487   -59.717223   -74.073718    17.034294 
   36900   -1726355.3   -35.402209     15.52521   -4.9583117   -59.463786   -74.246513    17.061725 
   37000   -1726355.3   -35.336164    15.504852   -4.9136563    -59.21624   -74.418996    17.089816 
   37100   -1726355.4   -35.269086     15.48845   -4.8674048   -58.965861   -74.598103    17.117732 
   37200   -1726355.4     -35.2041    15.463157   -4.8203508   -58.705476   -74.786409    17.148983 
   37300   -1726355.4    -35.14619     15.43853   -4.7733269   -58.472053   -74.964494    17.174324 
   37400   -1726355.5   -35.087013    15.414563   -4.7213237   -58.236574   -75.146609     17.20259 
   37500   -1726355.5   -35.032536    15.398771   -4.6701984   -57.998293   -75.336815    17.229556 
   37600   -1726355.6   -34.980854    15.378723   -4.6223911    -57.75951   -75.527116    17.255872 
   37700   -1726355.6    -34.93272    15.352477   -4.5735067   -57.536255   -75.709118     17.28387 
   37800   -1726355.6   -34.894438    15.324102   -4.5199505   -57.313074    -75.89563    17.312618 
   37900   -1726355.7   -34.851468    15.294322   -4.4628547   -57.084625   -76.091526    17.342958 
   38000   -1726355.7   -34.818043    15.259266    -4.409711   -56.867571   -76.283375    17.370172 
   38100   -1726355.8   -34.791816    15.226224   -4.3602706   -56.660118    -76.47904    17.401694 
   38200   -1726355.8   -34.772683    15.184147   -4.3130954    -56.45188   -76.678456    17.437922 
   38300   -1726355.9   -34.757084    15.132475   -4.2663334   -56.240641   -76.887898    17.480177 
   38400     -1726356   -34.767714    15.062963   -4.2458907   -56.032428    -77.09213    17.527005 
   38500     -1726356   -34.776662     14.98353   -4.2283681   -55.829274   -77.286725    17.572209 
   38600   -1726356.1   -34.786444    14.889075   -4.2203458   -55.621731    -77.48477    17.621404 
   38700   -1726356.1   -34.794065    14.785149   -4.2261714   -55.413179   -77.686101    17.678245 
   38800   -1726356.2   -34.802309    14.681059   -4.2362137   -55.197363   -77.886718    17.740932 
   38900   -1726356.3   -34.812553     14.56214   -4.2601379   -54.990655   -78.076269    17.802832 
   39000   -1726356.4    -34.81034     14.44519   -4.2805078    -54.78182   -78.267046    17.864439 
   39100   -1726356.4   -34.800505     14.32333   -4.2978364    -54.56245   -78.467138     17.92841 
   39200   -1726356.5   -34.787018    14.188847   -4.3247536   -54.333836   -78.664468    17.991941 
   39300   -1726356.5   -34.770736    14.058345   -4.3551576   -54.105735    -78.85113    18.049663 
   39400   -1726356.6   -34.757841     13.92518   -4.3845773   -53.854366    -79.04151    18.112817 
   39500   -1726356.7   -34.749041    13.777616    -4.418153   -53.587137   -79.234884    18.170177 
   39600   -1726356.8    -34.72888    13.649647   -4.4410859   -53.316784    -79.40978    18.210574 
   39700   -1726356.8   -34.722375    13.518581   -4.4658534   -53.010472   -79.590672     18.22781 
   39800     -1726357   -34.705986     13.39813   -4.4700099   -52.695643   -79.760948    18.233763 
   39900   -1726357.1   -34.656642    13.278756   -4.4302179    -52.37971   -79.930031    18.231199 
   40000   -1726357.3   -34.607171    13.141673   -4.3836183    -52.07089   -80.098288    18.240277 
   40100   -1726357.3   -34.551769    13.018678   -4.3317321   -51.769362   -80.268595    18.256744 
   40200   -1726357.4   -34.491123    12.883895   -4.2811841   -51.461899   -80.454777    18.274635 
   40300   -1726357.4   -34.433352    12.758879   -4.2420241   -51.182473   -80.632909    18.289681 
   40400   -1726357.5   -34.370673    12.635542   -4.1997099   -50.896046   -80.823061      18.3049 
   40500   -1726357.5   -34.305988    12.512996   -4.1514422   -50.604492    -81.02422     18.32284 
   40600   -1726357.6   -34.241304    12.387862   -4.1103751   -50.327437   -81.221305    18.338577 
   40700   -1726357.6   -34.163127    12.273769   -4.0576825   -50.055666   -81.418324    18.355828 
   40800   -1726357.7   -34.083577    12.158477   -4.0140754   -49.773623   -81.629911    18.370232 
   40900   -1726357.7   -33.996583    12.055521   -3.9743785   -49.505878   -81.834144    18.385301 
   41000   -1726357.8   -33.904451    11.966252    -3.929908   -49.249599   -82.038962     18.40022 
   41100   -1726357.8   -33.804683    11.875369   -3.8875936   -48.986996   -82.255452    18.420674 
   41200   -1726357.9   -33.709463    11.785338   -3.8576307   -48.744207   -82.461608    18.439318 
   41300   -1726357.9   -33.597839    11.703454   -3.8238629    -48.49697   -82.676672    18.461647 
   41400     -1726358   -33.482296    11.614959   -3.7888374   -48.248312   -82.902501    18.483484 
   41500     -1726358   -33.375483    11.534058   -3.7575287   -48.013794   -83.111985    18.505993 
   41600     -1726358   -33.262804    11.449601   -3.7258657   -47.771282   -83.335386    18.526287 
   41700   -1726358.1   -33.152028    11.363665   -3.6951947   -47.533437   -83.557381    18.557646 
   41800   -1726358.1   -33.043506     11.28687   -3.6699835   -47.303997   -83.771781     18.59103 
   41900   -1726358.2   -32.929434    11.205974   -3.6522312   -47.071196   -84.002487    18.627334 
   42000   -1726358.3   -32.824591    11.124375   -3.6455849   -46.851208   -84.218351    18.665897 
   42100   -1726358.3   -32.712073    11.051827   -3.6405238   -46.629709   -84.440753    18.706261 
   42200   -1726358.4   -32.603334    10.973157   -3.6476703   -46.418593   -84.661853    18.743118 
   42300   -1726358.4   -32.485016    10.904613   -3.6532697   -46.215396   -84.881601    18.780735 
   42400   -1726358.5   -32.371188    10.819687   -3.6691955   -46.007572   -85.111601    18.817178 
   42500   -1726358.6   -32.258739    10.740876   -3.6708307   -45.806858   -85.329876    18.850071 
   42600   -1726358.6   -32.136829    10.647676   -3.6807186   -45.587951   -85.563722    18.888891 
   42700   -1726358.7   -32.018814    10.552275    -3.683586   -45.366569   -85.789408    18.919948 
   42800   -1726358.7   -31.891265     10.45371   -3.6826094   -45.138133   -86.014391    18.948029 
   42900   -1726358.8    -31.75954    10.348125   -3.6787492   -44.895452   -86.247591    18.978427 
   43000   -1726358.9   -31.633941    10.240985   -3.6748358    -44.67016   -86.468071     19.00339 
   43100   -1726358.9   -31.498389    10.141083   -3.6632217   -44.430013   -86.693288    19.030617 
   43200   -1726358.9   -31.361508    10.040277   -3.6556002   -44.174593   -86.927997    19.056235 
   43300     -1726359    -31.23153    9.9393174   -3.6501273   -43.936252   -87.147331    19.077263 
   43400     -1726359   -31.094523    9.8352067   -3.6415182   -43.686473   -87.375506    19.096722 
   43500   -1726359.1   -30.959493    9.7335214   -3.6295498   -43.429984   -87.604116     19.11522 
   43600   -1726359.1   -30.822796    9.6302367   -3.6149793   -43.181371   -87.827401    19.131429 
   43700   -1726359.2   -30.690565    9.5323222   -3.5968832   -42.934356   -88.048265    19.147029 
   43800   -1726359.2   -30.550853    9.4302924    -3.582499   -42.682157   -88.275305    19.162505 
   43900   -1726359.3   -30.406716    9.3257699   -3.5615346   -42.418972   -88.507355    19.176548 
   44000   -1726359.3   -30.272829    9.2289198   -3.5472032   -42.166661   -88.730781    19.187834 
   44100   -1726359.3   -30.137974    9.1364437   -3.5280836   -41.924116   -88.948095    19.200345 
   44200   -1726359.4   -29.996836    9.0465084   -3.5012464   -41.669765   -89.176564    19.212795 
   44300   -1726359.4   -29.857784    8.9595555   -3.4797886   -41.410024   -89.411024     19.22549 
   44400   -1726359.5    -29.73049    8.8738239   -3.4566951   -41.168063   -89.628412    19.235499 
   44500   -1726359.5   -29.589643     8.784626   -3.4332577   -40.913072   -89.857903    19.244135 
   44600   -1726359.5   -29.456739    8.7007493   -3.4080813   -40.661419   -90.086444    19.251691 
   44700   -1726359.6   -29.321288    8.6160806    -3.379107   -40.417792   -90.311827    19.263236 
   44800   -1726359.6   -29.182428    8.5286811   -3.3497077   -40.162372   -90.549508    19.273946 
   44900   -1726359.6    -29.05354    8.4500161   -3.3244089    -39.92468    -90.77436    19.286068 
   45000   -1726359.7    -28.90898    8.3699461   -3.2958189   -39.671047   -91.007941    19.301909 
   45100   -1726359.7   -28.783359    8.2863066   -3.2712152   -39.419816   -91.234851    19.315868 
   45200   -1726359.7   -28.651563     8.203836    -3.240818   -39.166738   -91.471704    19.329632 
   45300   -1726359.8   -28.518354    8.1226462   -3.2207724    -38.90589   -91.714191    19.342871 
   45400   -1726359.8   -28.395862    8.0480036   -3.1976437   -38.657689   -91.946301    19.355334 
   45500   -1726359.8   -28.261514    7.9741786   -3.1651033   -38.397991   -92.189047    19.371516 
   45600   -1726359.9   -28.133614    7.8999969   -3.1357126   -38.143032   -92.424193     19.38554 
   45700   -1726359.9   -28.006588    7.8302874   -3.1142864   -37.892222   -92.659746    19.400952 
   45800   -1726359.9   -27.871423    7.7597578   -3.0970588   -37.627623   -92.908866    19.418267 
   45900     -1726360   -27.743845    7.6911244   -3.0828672   -37.377998   -93.144145    19.435812 
   46000     -1726360   -27.612149    7.6231418   -3.0661188    -37.11844   -93.387206    19.455787 
   46100     -1726360   -27.484595    7.5519974   -3.0485226   -36.861177   -93.633938    19.473818 
   46200   -1726360.1   -27.360207    7.4901196   -3.0338231   -36.607812   -93.875311    19.492392 
   46300   -1726360.1   -27.231717     7.418328   -3.0189813   -36.346099   -94.133381     19.51354 
   46400   -1726360.1   -27.113809    7.3531419   -3.0059595   -36.099896   -94.374557    19.530189 
   46500   -1726360.2   -26.979729     7.289007   -2.9865842   -35.840409    -94.63142    19.549381 
   46600   -1726360.2   -26.864553    7.2134892   -2.9772007   -35.590875   -94.875979    19.564702 
   46700   -1726360.2   -26.741325    7.1424167   -2.9598926   -35.335695   -95.126749    19.584613 
   46800   -1726360.3   -26.621221    7.0641572   -2.9446229   -35.079602   -95.377695    19.600432 
   46900   -1726360.3   -26.502552    6.9894307   -2.9338676    -34.82196   -95.626551    19.617017 
   47000   -1726360.4   -26.382287     6.903087   -2.9248002   -34.565055   -95.880481    19.635837 
   47100   -1726360.4   -26.254485    6.8225326   -2.9159671   -34.308269   -96.129896    19.652167 
   47200   -1726360.4   -26.128798    6.7245187   -2.9058676   -34.045026   -96.389661    19.670092 
   47300   -1726360.5   -25.992321    6.6302102   -2.8937124   -33.780788   -96.640276    19.683923 
   47400   -1726360.5   -25.849752     6.521127   -2.8861647   -33.508175   -96.900311    19.697064 
   47500   -1726360.6    -25.71161    6.4110744   -2.8803027   -33.246553   -97.147894    19.713991 
   47600   -1726360.6   -25.570209     6.284771   -2.8768186   -32.968716   -97.409202    19.731002 
   47700   -1726360.7   -25.438345    6.1676402   -2.8740855   -32.707687   -97.655594    19.744009 
   47800   -1726360.7   -25.306397    6.0355806   -2.8769649   -32.436341    -97.91717     19.76098 
   47900   -1726360.8   -25.186582    5.9091225    -2.878145    -32.18743    -98.16168    19.780125 
   48000   -1726360.8   -25.062839    5.7877007    -2.866708   -31.927938   -98.418609    19.796719 
   48100   -1726360.9   -24.948632    5.6747719    -2.863987   -31.683343   -98.665021    19.814428 
   48200   -1726360.9   -24.837126    5.5573453    -2.859339    -31.43459   -98.919576    19.833059 
   48300     -1726361   -24.714971    5.4422773   -2.8548158   -31.184847   -99.181603    19.847178 
   48400     -1726361   -24.599707    5.3376101    -2.848081   -30.951798   -99.437548    19.861964 
   48500   -1726361.1   -24.485094    5.2359469   -2.8395232   -30.706119   -99.710974    19.875699 
   48600   -1726361.1   -24.385551    5.1378661   -2.8366209   -30.476984   -99.977481    19.891438 
   48700   -1726361.2   -24.279599    5.0512389   -2.8259519    -30.24785   -100.24999    19.906968 
   48800   -1726361.2   -24.163304    4.9675341   -2.8186083   -30.008964   -100.53544    19.917648 
   48900   -1726361.3   -24.060653    4.8840765   -2.8160174   -29.787509   -100.80807     19.92847 
   49000   -1726361.3   -23.951995    4.8111895   -2.8055229   -29.561653   -101.09315    19.936524 
   49100   -1726361.3   -23.842317    4.7265717    -2.798397    -29.32917   -101.39144    19.947851 
   49200   -1726361.4   -23.735881    4.6448269   -2.7897047   -29.104096   -101.67758    19.959019 
   49300   -1726361.4   -23.622672    4.5633377   -2.7785307   -28.879694   -101.97093    19.971304 
   49400   -1726361.4   -23.503917    4.4860013   -2.7682187   -28.648317   -102.28149    19.981794 
   49500   -1726361.5   -23.390838    4.4098804   -2.7602378   -28.427609   -102.58371    19.990066 
   49600   -1726361.5   -23.274997    4.3384693   -2.7518258   -28.205552   -102.89382    20.001085 
   49700   -1726361.6    -23.15835      4.26817   -2.7440015   -27.976347   -103.21895    20.014925 
   49800   -1726361.6   -23.051636    4.1973746   -2.7334021   -27.760352   -103.52246    20.026516 
   49900   -1726361.6   -22.939093    4.1216037   -2.7233151   -27.535411   -103.84415    20.039058 
   50000   -1726361.7   -22.826021    4.0486941   -2.7116758   -27.313933   -104.17076    20.053187 
   50100   -1726361.7   -22.713982    3.9629972     -2.70401   -27.098586   -104.49597    20.067158 
   50200   -1726361.7   -22.597598    3.8766987   -2.6933096   -26.875435   -104.83987    20.080295 
   50300   -1726361.8   -22.488579    3.7979748   -2.6848747    -26.66395   -105.17019    20.093153 
   50400   -1726361.8   -22.380928    3.7188995   -2.6713149   -26.449383   -105.51361    20.109464 
   50500   -1726361.8   -22.268051    3.6414298   -2.6578459   -26.225952    -105.8728    20.126979 
   50600   -1726361.9   -22.162186    3.5679518   -2.6453164   -26.015217   -106.21092     20.14564 
   50700   -1726361.9   -22.047724    3.4865469   -2.6274406    -25.80279   -106.56165    20.164778 
   50800   -1726361.9   -21.925997    3.4113501   -2.6098511   -25.579575   -106.92626    20.184816 
   50900     -1726362   -21.815008    3.3311668   -2.5926671   -25.373122   -107.27097    20.203409 
   51000     -1726362   -21.695516    3.2553123   -2.5739345   -25.161739   -107.63338    20.223045 
   51100     -1726362   -21.577121    3.1690045   -2.5557539   -24.937661   -108.00969    20.246301 
   51200   -1726362.1   -21.471518    3.0850919   -2.5407342   -24.729017   -108.36503    20.264159 
   51300   -1726362.1   -21.357508    2.9944974   -2.5220024   -24.510129   -108.74081    20.282188 
   51400   -1726362.2   -21.252286    2.9002783      -2.5111   -24.284951   -109.13117    20.304827 
   51500   -1726362.2   -21.149126    2.8162786   -2.4955324   -24.073225   -109.49888    20.324451 
   51600   -1726362.2   -21.041702    2.7261622   -2.4808615   -23.852971   -109.88509    20.346707 
   51700   -1726362.3   -20.940121    2.6224958   -2.4690466   -23.626518   -110.28833     20.37129 
   51800   -1726362.3   -20.842453    2.5163612   -2.4625674   -23.410622   -110.66944     20.38971 
   51900   -1726362.4   -20.741712    2.4139907   -2.4503947   -23.196331   -111.05706     20.41669 
   52000   -1726362.4   -20.641962    2.3056812   -2.4366088   -22.975676   -111.45792    20.442427 
   52100   -1726362.5   -20.554774    2.1882434   -2.4316484   -22.757713   -111.85677    20.466893 
   52200   -1726362.5   -20.462392    2.0770655   -2.4226871   -22.546983   -112.24326    20.491198 
   52300   -1726362.5   -20.364323    1.9546833   -2.4100537   -22.331456   -112.64125    20.518463 
   52400   -1726362.6   -20.269839    1.8320034   -2.4021554   -22.123133   -113.03732    20.545681 
   52500   -1726362.6    -20.17639    1.7131458   -2.3839503   -21.919199   -113.41768    20.573043 
   52600   -1726362.7   -20.078726    1.5912112    -2.366994   -21.703543   -113.81195    20.602686 
   52700   -1726362.7   -19.976348    1.4824767   -2.3507825   -21.488907   -114.19762    20.630484 
   52800   -1726362.8   -19.879839    1.3697958   -2.3354402    -21.28739   -114.57692    20.661235 
   52900   -1726362.8   -19.779732    1.2522414   -2.3217602   -21.070065    -114.9702    20.692247 
   53000   -1726362.9   -19.685563    1.1383329   -2.3042682   -20.862212   -115.34668    20.718035 
   53100   -1726362.9   -19.589705    1.0262998   -2.2832399   -20.647156    -115.7263    20.745667 
   53200     -1726363   -19.485062   0.91176601   -2.2599039   -20.423201   -116.11946    20.773432 
   53300     -1726363   -19.389364   0.80310995   -2.2429587   -20.208917   -116.49509    20.796991 
   53400     -1726363   -19.291423   0.69994053   -2.2193266   -19.990973   -116.86594    20.820341 
   53500   -1726363.1   -19.189827   0.59086747   -2.1931448   -19.762894    -117.2534    20.844889 
   53600   -1726363.1   -19.096668   0.48101793   -2.1739623   -19.538491   -117.64109    20.863209 
   53700   -1726363.2   -19.011145   0.37149198   -2.1534526   -19.321489   -118.00931    20.885349 
   53800   -1726363.2   -18.921094   0.27517141   -2.1288701   -19.098844   -118.38507    20.902348 
   53900   -1726363.2    -18.82877   0.17229706   -2.1033203   -18.867166   -118.77072    20.921179 
   54000   -1726363.3   -18.735309  0.072032466   -2.0801975   -18.635341   -119.15746    20.937003 
   54100   -1726363.3   -18.653147 -0.021231136   -2.0564774   -18.421496   -119.52523    20.952611 
   54200   -1726363.3   -18.567334  -0.11922803   -2.0220025   -18.200574   -119.90183    20.972704 
   54300   -1726363.4   -18.473817  -0.21390145   -1.9883798   -17.971707   -120.29226    20.990766 
   54400   -1726363.4   -18.387435  -0.31596459   -1.9632301   -17.752087   -120.67381    21.010317 
   54500   -1726363.5   -18.296132  -0.41404429   -1.9365582     -17.5384   -121.04568    21.026002 
   54600   -1726363.5   -18.208013  -0.51510647   -1.9130042   -17.316509   -121.43224     21.04577 
   54700   -1726363.5   -18.113513  -0.61619854   -1.8880651   -17.097185   -121.81429    21.058085 
   54800   -1726363.6   -18.023402  -0.71279849   -1.8609549   -16.881694   -122.18778    21.072775 
   54900   -1726363.6   -17.935253  -0.81071793   -1.8350695   -16.658095    -122.5756    21.087699 
   55000   -1726363.6    -17.85328  -0.90529863   -1.8151227   -16.444034   -122.95142    21.104385 
   55100   -1726363.7   -17.764841  -0.99822924   -1.7891855   -16.228085   -123.32685     21.12054 
   55200   -1726363.7   -17.669379   -1.0829668   -1.7628944   -16.006836   -123.71714    21.137475 
   55300   -1726363.7   -17.580855   -1.1630602   -1.7365564    -15.79491   -124.09097    21.154909 
   55400   -1726363.8   -17.486171   -1.2558034   -1.7058856   -15.572289   -124.49005    21.177002 
   55500   -1726363.8   -17.394872   -1.3355718   -1.6779987   -15.366175   -124.86442    21.198709 
   55600   -1726363.8   -17.296667   -1.4225306   -1.6449173   -15.145874   -125.26206    21.219708 
   55700   -1726363.9   -17.206451   -1.5174756   -1.6173734   -14.938807   -125.64651    21.238327 
   55800   -1726363.9   -17.110589   -1.6051375   -1.5852731   -14.719703   -126.05004    21.262172 
   55900     -1726364   -17.011776   -1.6809697   -1.5592375   -14.513463   -126.43981    21.285646 
   56000     -1726364   -16.904032   -1.7547426   -1.5270518    -14.29419   -126.84531    21.309193 
   56100     -1726364   -16.806959   -1.8302333   -1.4936064   -14.083284   -127.23246    21.329868 
   56200   -1726364.1   -16.708646   -1.9085374     -1.46246   -13.863467   -127.63527    21.353166 
   56300   -1726364.1   -16.611415   -1.9772746   -1.4313102    -13.65509   -128.02249    21.376352 
   56400   -1726364.1   -16.510142   -2.0480246   -1.3927238   -13.444665   -128.42021    21.400442 
   56500   -1726364.2   -16.409962   -2.1203314   -1.3621153   -13.234423   -128.81609    21.421527 
   56600   -1726364.2   -16.304842   -2.1931098   -1.3296874   -13.024702   -129.20619     21.44752 
   56700   -1726364.3   -16.202851   -2.2714384   -1.2949199   -12.810211   -129.61324    21.471103 
   56800   -1726364.3    -16.10916   -2.3502656   -1.2630709   -12.607826   -129.99298    21.495337 
   56900   -1726364.3   -16.013383   -2.4286047   -1.2235093   -12.395414   -130.38807    21.519555 
   57000   -1726364.4   -15.914443   -2.5055354   -1.1893848   -12.183558   -130.78601     21.54379 
   57100   -1726364.4   -15.819653     -2.58007   -1.1477191   -11.982343   -131.16644    21.569708 
   57200   -1726364.4   -15.719608   -2.6622602   -1.1097154   -11.769426   -131.56629    21.596337 
   57300   -1726364.5   -15.625634   -2.7437135   -1.0783045   -11.570334   -131.94546     21.62117 
   57400   -1726364.5   -15.531579   -2.8279356   -1.0438979   -11.358927    -132.3378    21.648969 
   57500   -1726364.6   -15.440687   -2.9130567   -1.0140095    -11.14965   -132.72887    21.673802 
   57600   -1726364.6   -15.350092   -2.9976915  -0.98128803   -10.944093   -133.11561    21.702666 
   57700   -1726364.6   -15.250714   -3.0824219   -0.9473761   -10.729252   -133.51823    21.728471 
   57800   -1726364.7   -15.158696   -3.1633333  -0.90835574   -10.529817   -133.89627    21.753633 
   57900   -1726364.7   -15.057845   -3.2451609  -0.87049854   -10.321922   -134.29031    21.780296 
   58000   -1726364.7   -14.968352   -3.3388819  -0.84141685    -10.11604   -134.68017    21.809825 
   58100   -1726364.8   -14.875676   -3.4272866  -0.80475522   -9.9125164   -135.06293    21.839515 
   58200   -1726364.8   -14.777959   -3.5193836  -0.77024511   -9.7002308   -135.46015     21.86899 
   58300   -1726364.8   -14.683644   -3.6162914  -0.74144218   -9.5033663   -135.83701    21.893666 
   58400   -1726364.9   -14.592476   -3.7132966  -0.71201786   -9.2917508   -136.22354    21.920916 
   58500   -1726364.9   -14.503212   -3.8191588  -0.68828926   -9.0781472   -136.61989    21.951923 
   58600     -1726365   -14.415141   -3.9114576   -0.6591888   -8.8766686   -136.99368    21.982897 
   58700     -1726365   -14.327853   -4.0216406  -0.62996954   -8.6635234   -137.38734    22.013881 
   58800   -1726365.1    -14.24411   -4.1317585  -0.60554539   -8.4561831   -137.76875    22.043724 
   58900   -1726365.1   -14.154984   -4.2371456  -0.57513066   -8.2539648   -138.14434    22.073844 
   59000   -1726365.1   -14.063857   -4.3414866  -0.54755259    -8.043911   -138.54019    22.104772 
   59100   -1726365.2    -13.98012   -4.4430187  -0.52885071   -7.8441917   -138.91552     22.13486 
   59200   -1726365.2   -13.894325   -4.5403475  -0.50309025    -7.644515   -139.29169    22.165131 
   59300   -1726365.3    -13.80493   -4.6368891  -0.48119239   -7.4334102   -139.68177     22.19503 
   59400   -1726365.3   -13.716722   -4.7175557  -0.45326777   -7.2367273   -140.04377    22.224484 
   59500   -1726365.3   -13.630598   -4.8037036  -0.43231814   -7.0314655   -140.42298    22.252784 
   59600   -1726365.4   -13.545146   -4.8947135  -0.41229808   -6.8269854   -140.79605    22.283323 
   59700   -1726365.4   -13.459502   -4.9764623  -0.38598219   -6.6262768   -141.15655    22.312289 
   59800   -1726365.4   -13.370974    -5.056397  -0.36160484   -6.4220607   -141.52826    22.341209 
   59900   -1726365.5   -13.289967   -5.1457857  -0.34010383   -6.2249288   -141.88749     22.36651 
   60000   -1726365.5   -13.207326   -5.2258416  -0.31237114   -6.0241586   -142.24649     22.39304 
   60100   -1726365.6   -13.128006   -5.3105944  -0.28437409    -5.820231   -142.61819    22.423339 
   60200   -1726365.6   -13.051185   -5.3878143  -0.25881072   -5.6319267   -142.96537    22.452509 
   60300   -1726365.7   -12.978418   -5.4669405  -0.23174906   -5.4411695   -143.32607    22.482752 
   60400   -1726365.7   -12.906048   -5.5498426  -0.20472472    -5.242359   -143.69776    22.514554 
   60500   -1726365.8   -12.834878    -5.626076   -0.1786846   -5.0535963   -144.05331    22.542401 
   60600   -1726365.8    -12.76559   -5.7017152  -0.14721318   -4.8618885   -144.40175    22.572612 
   60700   -1726365.8   -12.695122   -5.7849153  -0.10919928   -4.6623162   -144.76153     22.60426 
   60800   -1726365.9   -12.628936   -5.8668087 -0.080729096   -4.4655431   -145.10624    22.633429 
   60900   -1726365.9    -12.56689   -5.9503429 -0.046157717   -4.2741718   -145.44868    22.662622 
   61000   -1726365.9   -12.496795   -6.0331136 -0.0078915049   -4.0732465   -145.80122    22.692342 
   61100     -1726366   -12.439482   -6.1180433  0.025264415   -3.8796426    -146.1325    22.718407 
   61200   -1726366.1    -12.38213   -6.2006664  0.062144746   -3.6869396   -146.45988    22.750853 
   61300   -1726366.1   -12.309377   -6.2817952   0.10691084    -3.483555    -146.7933    22.774902 
   61400   -1726366.2   -12.246577   -6.3564709   0.14321654   -3.2953033   -147.10566    22.793845 
   61500   -1726366.2    -12.18132   -6.4356839   0.18116229   -3.0901404   -147.42297    22.814103 
   61600   -1726366.2   -12.118145   -6.5096875   0.21728428   -2.8869501   -147.73334    22.834421 
   61700   -1726366.3   -12.047941   -6.5728782   0.26497983    -2.687447   -148.03292    22.855823 
   61800   -1726366.3   -11.986183    -6.643571   0.30264814   -2.4781295   -148.34191    22.874159 
   61900   -1726366.4   -11.921124   -6.7081418    0.3362184   -2.2802256   -148.62753    22.890709 
   62000   -1726366.4   -11.853801   -6.7714863   0.37243228   -2.0740808   -148.92733    22.912014 
   62100   -1726366.4    -11.78781   -6.8314003   0.40360095   -1.8754094   -149.21587    22.931313 
   62200   -1726366.5   -11.720392   -6.8872598   0.43399964    -1.675268   -149.50345    22.948169 
   62300   -1726366.5   -11.650028    -6.952842   0.47073142   -1.4654497   -149.79952    22.968957 
   62400   -1726366.5   -11.583719   -7.0108066   0.49583403   -1.2681831   -150.07329    22.986541 
   62500   -1726366.6   -11.514485   -7.0627599   0.52967907   -1.0661307   -150.34996    23.007576 
   62600   -1726366.6   -11.446791    -7.116443   0.56163523  -0.85857441   -150.63585    23.030871 
   62700   -1726366.6    -11.37995   -7.1636721   0.58500171  -0.66592823   -150.90169     23.05193 
   62800   -1726366.7   -11.314141   -7.2106213   0.61140718  -0.46788999   -151.16771     23.07539 
   62900   -1726366.7   -11.245282   -7.2572316   0.63630731  -0.26314776   -151.44086    23.097169 
   63000   -1726366.7   -11.182577   -7.3073377   0.65273441 -0.072592277   -151.69644    23.114074 
   63100   -1726366.8   -11.118013   -7.3480017   0.67936731   0.12622235   -151.95194    23.133959 
   63200   -1726366.8   -11.046556   -7.3952843   0.70445858   0.33435815   -152.21496    23.157083 
   63300   -1726366.8    -10.98161   -7.4366999   0.72268354    0.5316459   -152.46156    23.176678 
   63400   -1726366.9    -10.91987   -7.4771229   0.74325321   0.73002794   -152.70976    23.193457 
   63500   -1726366.9   -10.856647   -7.5221944   0.76439693   0.93501273    -152.9682    23.212623 
   63600   -1726366.9   -10.796035   -7.5544383   0.78063129    1.1300108   -153.20755    23.232286 
   63700   -1726366.9   -10.729844   -7.5805793   0.80852948    1.3296882   -153.45176    23.253332 
   63800     -1726367   -10.671469   -7.6149928   0.83196457    1.5347143   -153.70127    23.269453 
   63900     -1726367   -10.609867   -7.6349452   0.85840502    1.7262675   -153.93195    23.285149 
   64000     -1726367   -10.554696    -7.665343   0.88387209    1.9234488   -154.17565    23.300624 
   64100   -1726367.1   -10.497643   -7.6793807   0.90730272    2.1166478   -154.41524    23.315212 
   64200   -1726367.1   -10.445403   -7.6924879   0.93049611    2.3049394   -154.65022    23.327494 
   64300   -1726367.1   -10.390391   -7.6974319   0.95729675    2.4987959   -154.89848    23.338645 
   64400   -1726367.2    -10.33533   -7.6913382   0.98966212     2.678509   -155.13182    23.349115 
   64500   -1726367.2     -10.2773    -7.683761    1.0263733    2.8630123    -155.3793    23.362985 
   64600   -1726367.2   -10.224889   -7.6683326     1.062511    3.0355382   -155.61084     23.37378 
   64700   -1726367.3   -10.165507   -7.6497312    1.0978931    3.2136313   -155.85476    23.385817 
   64800   -1726367.3   -10.114552   -7.6307597    1.1266938    3.3790794   -156.08315    23.400795 
   64900   -1726367.4   -10.059055   -7.6058007    1.1646819    3.5528094   -156.31876    23.417615 
   65000   -1726367.4   -10.008304   -7.5907188     1.201078    3.7190888   -156.54255    23.435133 
   65100   -1726367.4   -9.9573977   -7.5729667     1.233497    3.8938813   -156.77198    23.457438 
   65200   -1726367.5   -9.9008195   -7.5460004    1.2779027     4.064836   -156.99051    23.478798 
   65300   -1726367.5   -9.8516694   -7.5259959    1.3225582    4.2363379   -157.21024     23.50313 
   65400   -1726367.6   -9.8065844   -7.4938969    1.3662299    4.4053814   -157.42795    23.530944 
   65500   -1726367.6   -9.7616143   -7.4597918    1.4205522    4.5770879   -157.64957     23.55958 
   65600   -1726367.6   -9.7201747   -7.4222051    1.4778987    4.7417066   -157.86414    23.591685 
   65700   -1726367.7   -9.6905126   -7.3917263    1.5358576    4.9048289   -158.07606    23.625122 
   65800   -1726367.7   -9.6565833   -7.3524888    1.6029852    5.0721272   -158.29676    23.657017 
   65900   -1726367.8   -9.6207231   -7.3048036    1.6754182    5.2302111    -158.5063    23.685182 
   66000   -1726367.9   -9.5867453   -7.2557057    1.7438966    5.3919741   -158.72944     23.71242 
   66100     -1726368   -9.5413981   -7.2062073    1.8204254    5.5458836   -158.94381    23.736857 
   66200   -1726368.1   -9.4894055   -7.1589242    1.8913061    5.7062876    -159.1637    23.755754 
   66300   -1726368.1   -9.4261842   -7.1114697    1.9518407    5.8650666   -159.39164     23.77338 
   66400   -1726368.2   -9.3656504   -7.0841667    1.9976989    6.0189252   -159.61981    23.791104 
   66500   -1726368.3   -9.3064375   -7.0619492     2.040556    6.1812116   -159.85712    23.809452 
   66600   -1726368.3   -9.2544074   -7.0455972    2.0782576    6.3290012   -160.08488    23.829473 
   66700   -1726368.4   -9.1966171   -7.0355832     2.106387    6.4907372   -160.32269    23.846933 
   66800   -1726368.4   -9.1516601   -7.0177736    2.1435663    6.6461007   -160.55305    23.867415 
   66900   -1726368.5   -9.1109475   -7.0058392    2.1738642    6.8063735   -160.78955     23.88687 
   67000   -1726368.5   -9.0681172   -6.9920003    2.2125656     6.962096   -161.01378    23.899987 
   67100   -1726368.6   -9.0227219   -6.9842116    2.2427788    7.1241639   -161.24633    23.913302 
   67200   -1726368.6   -8.9802812   -6.9756482    2.2723819    7.2836303   -161.46643     23.92704 
   67300   -1726368.6   -8.9426312   -6.9627414     2.301083    7.4535736   -161.69806    23.940951 
   67400   -1726368.7   -8.9122052    -6.949287    2.3238466    7.6147353   -161.91176     23.95372 
   67500   -1726368.7   -8.8801266   -6.9282504    2.3508963     7.792196   -162.13788      23.9695 
   67600   -1726368.7   -8.8515674   -6.9034509    2.3745158    7.9594153   -162.35017    23.982517 
   67700   -1726368.8   -8.8304138   -6.8859682    2.3940765    8.1339096   -162.57635     23.99401 
   67800   -1726368.8    -8.803245   -6.8651544     2.414647    8.3030614   -162.78901    24.003569 
   67900   -1726368.8   -8.7766469   -6.8370871    2.4367459    8.4803471   -163.00759     24.01532 
   68000   -1726368.9   -8.7518321   -6.8150516    2.4559001    8.6605585   -163.21966    24.028033 
   68100   -1726368.9   -8.7245413   -6.7849874    2.4765676    8.8419511   -163.43587    24.044381 
   68200   -1726368.9    -8.701732    -6.761238     2.495554    9.0222071   -163.64666    24.058044 
   68300     -1726369   -8.6750252   -6.7321128    2.5178866    9.2082675    -163.8608     24.07004 
   68400     -1726369   -8.6491443   -6.7072725    2.5366016    9.3885532   -164.07641    24.081923 
   68500     -1726369   -8.6217067    -6.679105    2.5583863     9.571788   -164.29353    24.093183 
   68600   -1726369.1   -8.5951697    -6.648365    2.5787033    9.7554217   -164.50781    24.101004 
   68700   -1726369.1   -8.5662991   -6.6165456    2.5995571    9.9425514   -164.72095     24.10863 
   68800   -1726369.1   -8.5425529    -6.590012    2.6224516    10.132896   -164.92911    24.114494 
   68900   -1726369.1   -8.5173912    -6.568702    2.6461561    10.322151   -165.13726    24.122305 
   69000   -1726369.2   -8.4922283   -6.5495653    2.6645533    10.513288   -165.34358    24.129069 
   69100   -1726369.2   -8.4617315   -6.5243418    2.6895057     10.70453   -165.54856    24.135021 
   69200   -1726369.2   -8.4318844   -6.5079223    2.7158516    10.900814   -165.75979    24.140129 
   69300   -1726369.3   -8.4093608   -6.4886992    2.7408679    11.089721   -165.96574    24.147201 
   69400   -1726369.3   -8.3844303   -6.4692847    2.7644606    11.289063   -166.18195    24.153638 
   69500   -1726369.3    -8.358567   -6.4489186    2.7926402    11.479259   -166.38392    24.160744 
   69600   -1726369.4   -8.3330691   -6.4250068    2.8177071    11.681876   -166.60052    24.167455 
   69700   -1726369.4   -8.3135426   -6.4129601    2.8440574    11.875131   -166.80408    24.172879 
   69800   -1726369.4   -8.2855345   -6.3997803    2.8692655    12.070986   -167.00911    24.175457 
   69900   -1726369.5   -8.2603864   -6.3900403    2.8946005    12.271635   -167.21589    24.179561 
   70000   -1726369.5   -8.2345569   -6.3845397    2.9188551    12.463934   -167.41372    24.184144 
   70100   -1726369.5   -8.2105733   -6.3806398    2.9382725    12.666826   -167.62061    24.187449 
   70200   -1726369.5   -8.1906072   -6.3801063    2.9597099    12.863103   -167.81454    24.191587 
   70300   -1726369.6   -8.1708216   -6.3790026    2.9771552     13.06386   -168.01377    24.195878 
   70400   -1726369.6   -8.1520091   -6.3799016    2.9919156    13.267679   -168.21811    24.201425 
   70500   -1726369.6   -8.1393452   -6.3784853    3.0059081    13.462456   -168.41103    24.203614 
   70600   -1726369.7   -8.1334799    -6.381873    3.0229377    13.672663    -168.6162    24.201875 
   70700   -1726369.7   -8.1178391   -6.3785573    3.0397074    13.871062   -168.80693    24.201256 
   70800   -1726369.7   -8.1000681   -6.3778408    3.0555319    14.075499   -169.01066    24.202276 
   70900   -1726369.8   -8.0841999   -6.3760625    3.0698404    14.283542   -169.21289    24.202854 
   71000   -1726369.8   -8.0664897   -6.3680537    3.0858613    14.489671    -169.4049    24.199848 
   71100   -1726369.8   -8.0446272   -6.3647475    3.0982074     14.69602   -169.59597    24.198924 
   71200   -1726369.9   -8.0224962    -6.359163    3.1157327    14.911147   -169.79136    24.198013 
   71300   -1726369.9   -8.0042966   -6.3540218    3.1282722    15.127802   -169.98293    24.193833 
   71400   -1726369.9   -7.9817798   -6.3529659    3.1393243     15.34061   -170.17067    24.186517 
   71500     -1726370   -7.9638083   -6.3583946    3.1446067    15.555115   -170.35678    24.179328 
   71600     -1726370   -7.9458452    -6.358174    3.1495585    15.778107    -170.5451    24.166194 
   71700     -1726370   -7.9233309    -6.353132    3.1500545    16.007213   -170.73594    24.152254 
   71800   -1726370.1   -7.9083773   -6.3568056    3.1492076    16.221656   -170.91463    24.135723 
   71900   -1726370.1   -7.8887494   -6.3642348     3.144949    16.442677   -171.09362    24.122746 
   72000   -1726370.2   -7.8708019   -6.3723312    3.1459309    16.672358   -171.27997    24.104413 
   72100   -1726370.2   -7.8564874   -6.3766228    3.1316326    16.895715   -171.45992     24.09023 
   72200   -1726370.3   -7.8341138   -6.3746588    3.1259032    17.120298   -171.63245    24.074629 
   72300   -1726370.3   -7.8112737   -6.3750535    3.1110144    17.348761   -171.80774     24.05869 
   72400   -1726370.3   -7.7992376   -6.3719822    3.0936763     17.57711   -171.98355    24.045427 
   72500   -1726370.4   -7.7849163    -6.375255    3.0742087    17.797262   -172.15347    24.030617 
   72600   -1726370.4   -7.7727377   -6.3798201    3.0559471    18.034164   -172.32668    24.018946 
   72700   -1726370.5   -7.7585007   -6.3945274    3.0331739    18.259519   -172.49148    24.004571 
   72800   -1726370.5   -7.7381414   -6.4009078    3.0168098    18.490342   -172.66362    23.992834 
   72900   -1726370.6   -7.7220033    -6.418225    2.9991316     18.72205   -172.82889    23.984428 
   73000   -1726370.6    -7.694717    -6.429661    2.9896469    18.953373   -172.98639    23.977788 
   73100   -1726370.6   -7.6710082   -6.4368487    2.9837296    19.195571   -173.15376    23.974027 
   73200   -1726370.7   -7.6482314   -6.4476743    2.9798968    19.423021   -173.31111    23.971449 
   73300   -1726370.7    -7.624602   -6.4634857    2.9760788    19.653864   -173.47436    23.973163 
   73400   -1726370.8   -7.6029437   -6.4806706    2.9717604    19.890234    -173.6352    23.975904 
   73500   -1726370.8   -7.5755602   -6.5004263    2.9638343    20.118403   -173.79232    23.982062 
   73600   -1726370.9   -7.5351732   -6.5182901    2.9596127    20.351093   -173.94828    23.987221 
   73700   -1726370.9   -7.4993578    -6.546741    2.9458352    20.592807   -174.11363    23.994176 
   73800     -1726371    -7.466845   -6.5713881    2.9322385    20.817484   -174.26586    24.008843 
   73900     -1726371   -7.4195776   -6.5903136    2.9306975    21.048652   -174.42412    24.024406 
   74000   -1726371.1   -7.3755179   -6.6120234    2.9257896    21.279089   -174.58421    24.038675 
   74100   -1726371.1   -7.3185054   -6.6247948    2.9292407    21.500427   -174.73303    24.047991 
   74200   -1726371.2   -7.2649771   -6.6447866    2.9316992    21.732061   -174.88586    24.056536 
   74300   -1726371.2   -7.2216633   -6.6676719    2.9353072    21.952937   -175.02549    24.066965 
   74400   -1726371.3   -7.1736538   -6.6926118    2.9451929    22.176078   -175.16605    24.072654 
   74500   -1726371.4   -7.1308983   -6.7058904    2.9695199    22.413161   -175.30558    24.081749 
   74600   -1726371.4   -7.0823598   -6.7133756     2.996842    22.639838   -175.43992    24.089089 
   74700   -1726371.4   -7.0401393   -6.7225684    3.0279796    22.876576   -175.57834    24.092324 
   74800   -1726371.5   -7.0062166   -6.7441119     3.058177    23.121644   -175.72311    24.096151 
   74900   -1726371.5   -6.9703416   -6.7550211    3.0967164    23.354924   -175.85692    24.102586 
   75000   -1726371.6   -6.9334245   -6.7709142    3.1337272    23.595894   -175.99549     24.10969 
   75100   -1726371.6   -6.8881557   -6.7839099    3.1771688     23.84754    -176.1325    24.114607 
   75200   -1726371.7   -6.8580421   -6.8089413     3.205441    24.084489   -176.26036    24.126147 
   75300   -1726371.7    -6.827005   -6.8323056    3.2333528    24.324448   -176.38929    24.139904 
   75400   -1726371.8   -6.7952643   -6.8549549    3.2547868    24.576113   -176.51793    24.154021 
   75500   -1726371.8   -6.7695173   -6.8895868    3.2628617    24.826883   -176.64995    24.169687 
   75600   -1726371.9   -6.7458103   -6.9162514    3.2688641     25.06115   -176.77372    24.184817 
   75700   -1726371.9   -6.7208291   -6.9390052    3.2764175    25.304774   -176.90019    24.202116 
   75800     -1726372    -6.694453   -6.9613488    3.2785432    25.551653   -177.02897    24.217128 
   75900     -1726372   -6.6687465   -6.9835705    3.2773463    25.799408   -177.16704    24.240678 
   76000   -1726372.1   -6.6500282   -7.0114445    3.2680744    26.030349   -177.29245    24.261881 
   76100   -1726372.1   -6.6252514   -7.0362628    3.2665384    26.263112   -177.41899    24.281886 
   76200   -1726372.1   -6.5986399   -7.0549473    3.2674626    26.511462    -177.5473    24.301366 
   76300   -1726372.2    -6.577047    -7.078432    3.2643399    26.745146    -177.6707    24.320333 
   76400   -1726372.2   -6.5560609   -7.1009298    3.2656806    26.982875   -177.79279     24.33951 
   76500   -1726372.3    -6.538639   -7.1313255    3.2641025    27.230562   -177.91727    24.359274 
   76600   -1726372.3   -6.5146489   -7.1544326    3.2640293    27.462217   -178.03985    24.377608 
   76700   -1726372.4   -6.4961126   -7.1855377    3.2641141    27.706088   -178.16468    24.397954 
   76800   -1726372.4   -6.4788082   -7.2251341    3.2609205     27.95071   -178.29023    24.418519 
   76900   -1726372.5   -6.4574281   -7.2500986    3.2625311    28.190824   -178.41567    24.437395 
   77000   -1726372.5    -6.440732   -7.2892058    3.2635478    28.433309   -178.54287    24.457495 
   77100   -1726372.5   -6.4220331   -7.3263818    3.2645255    28.688749   -178.67012    24.473893 
   77200   -1726372.6   -6.4129596   -7.3657947    3.2695719    28.935969   -178.79609    24.489331 
   77300   -1726372.6   -6.4035347    -7.398103    3.2784104     29.17534   -178.91483     24.50331 
   77400   -1726372.7   -6.3916326   -7.4331381    3.2953559    29.418663    -179.0336    24.518563 
   77500   -1726372.7   -6.3821429   -7.4655395    3.3112011    29.669361   -179.15412    24.534625 
   77600   -1726372.7    -6.366096   -7.4899375    3.3338779    29.923005   -179.27987    24.551231 
[...]
  193800   -1726387.3   -8.1086434   -12.617963    11.633865    149.83386   -177.35118    19.332806 
  193900   -1726387.3   -8.1209796   -12.609355    11.633891    149.84905   -177.34659    19.329916 
  194000   -1726387.3   -8.1328803   -12.600935     11.63312    149.86344   -177.34137     19.32597 
  194100   -1726387.3   -8.1469559   -12.592985    11.632369    149.87921   -177.33654     19.32339 
  194200   -1726387.3   -8.1588939   -12.581992    11.632794    149.89503   -177.33021    19.320286 
  194300   -1726387.3    -8.172629   -12.572005    11.631503    149.91205   -177.32443    19.316477 
  194400   -1726387.3   -8.1847061   -12.562165    11.632166    149.92886   -177.31974    19.312959 
  194500   -1726387.3   -8.1974481   -12.551121     11.63155     149.9471   -177.31514     19.30897 
  194600   -1726387.3   -8.2125288    -12.54032    11.631194    149.96435   -177.31059    19.304906 
  194700   -1726387.3    -8.225748   -12.530048    11.632426    149.98401   -177.30507    19.300281 
  194800   -1726387.3   -8.2405302   -12.519906    11.633881    150.00207   -177.29941     19.29701 
  194900   -1726387.3   -8.2541524   -12.510171    11.634251    150.02079   -177.29437    19.293262 
  195000   -1726387.3   -8.2668311   -12.497507    11.635466    150.03768   -177.28871    19.289832 
  195100   -1726387.3   -8.2798058   -12.486276    11.636898     150.0555   -177.28367    19.285816 
  195200   -1726387.3   -8.2933585    -12.47591    11.637856    150.07302   -177.27819    19.282235 
  195300   -1726387.3   -8.3059606   -12.465603    11.638258    150.09047   -177.27235    19.278595 
  195400   -1726387.3   -8.3194463    -12.45542    11.639765    150.10792   -177.26653    19.274648 
  195500   -1726387.3   -8.3330549   -12.444001    11.640718    150.12501   -177.26118    19.271208 
  195600   -1726387.3   -8.3461587   -12.432388    11.641426    150.14349   -177.25592    19.268019 
  195700   -1726387.3   -8.3580327   -12.421088    11.642954    150.15979   -177.25117    19.263932 
  195800   -1726387.3   -8.3700477   -12.410378    11.644138    150.17659   -177.24607    19.260946 
  195900   -1726387.3   -8.3811877   -12.399842    11.645795    150.19345   -177.24148    19.258329 
  196000   -1726387.3   -8.3917793   -12.389166    11.646899    150.21079   -177.23637    19.256287 
  196100   -1726387.3   -8.4046662   -12.379216    11.647913    150.22748   -177.23155    19.252489 
  196200   -1726387.3   -8.4170726   -12.368342    11.649197    150.24511   -177.22689    19.249604 
  196300   -1726387.3   -8.4296618   -12.357673    11.650446    150.26266   -177.22213    19.246587 
  196400   -1726387.3    -8.442112   -12.346171    11.652121    150.28128   -177.21757    19.243296 
  196500   -1726387.3   -8.4541173   -12.335563     11.65305    150.29885    -177.2118    19.240678 
  196600   -1726387.3   -8.4666813   -12.326614    11.653573    150.31595   -177.20612    19.238263 
  196700   -1726387.3   -8.4782935   -12.315543    11.654883    150.33342   -177.20036    19.235854 
  196800   -1726387.3   -8.4897959   -12.304543    11.656552    150.35049   -177.19508    19.232915 
  196900   -1726387.3    -8.503307   -12.293682    11.656919    150.36779   -177.18891    19.230267 
  197000   -1726387.3   -8.5148074   -12.284345    11.657971     150.3846    -177.1832    19.228008 
  197100   -1726387.3   -8.5252849   -12.275157    11.659112    150.40151   -177.17704      19.2245 
  197200   -1726387.3   -8.5369238   -12.265942    11.659828    150.41941   -177.17085     19.22152 
  197300   -1726387.3   -8.5469797   -12.256299     11.66196    150.43637   -177.16481    19.218936 
  197400   -1726387.3   -8.5579138   -12.247109    11.663429    150.45314   -177.15845     19.21581 
  197500   -1726387.3   -8.5688904   -12.235388    11.666111    150.47024   -177.15271    19.213275 
  197600   -1726387.3   -8.5788876   -12.224554    11.667968    150.48761   -177.14629    19.210897 
  197700   -1726387.3   -8.5892273   -12.213835     11.66983    150.50454   -177.14012    19.208233 
  197800   -1726387.3    -8.598946    -12.20213    11.670803    150.52167   -177.13444    19.206094 
  197900   -1726387.3   -8.6088866   -12.192655    11.670466    150.53887   -177.12874     19.20398 
  198000   -1726387.3   -8.6181675   -12.181964     11.67196    150.55611   -177.12309    19.201336 
  198100   -1726387.3   -8.6276534   -12.171897    11.674163    150.57332    -177.1177    19.199502 
  198200   -1726387.3   -8.6367464   -12.160569    11.675635    150.58979   -177.11199    19.197145 
  198300   -1726387.3   -8.6464672   -12.149759    11.676889    150.60631   -177.10686    19.194547 
  198400   -1726387.3   -8.6564238   -12.139772    11.677763    150.62258   -177.10145    19.192164 
  198500   -1726387.3   -8.6676868     -12.1304    11.677123    150.63976   -177.09612    19.189593 
  198600   -1726387.3   -8.6768684   -12.120139    11.677534    150.65619   -177.09067     19.18714 
  198700   -1726387.3   -8.6860834   -12.109802    11.678842    150.67226    -177.0852    19.184507 
  198800   -1726387.3   -8.6953141   -12.099462    11.679604    150.68881   -177.07959     19.18161 
  198900   -1726387.3   -8.7042739   -12.088403    11.679268    150.70474   -177.07455    19.179412 
  199000   -1726387.3   -8.7124974   -12.077759    11.679905      150.721   -177.06948    19.177222 
  199100   -1726387.3   -8.7211743   -12.067719     11.68059    150.73697    -177.0648    19.174262 
  199200   -1726387.3   -8.7295014   -12.056828    11.681116    150.75292    -177.0597    19.172317 
  199300   -1726387.3   -8.7383175   -12.046625    11.682501     150.7695   -177.05471     19.17075 
  199400   -1726387.3   -8.7474277   -12.038172    11.682165    150.78517   -177.04945    19.168769 
  199500   -1726387.3   -8.7558752   -12.029697    11.682869    150.80098   -177.04503    19.167891 
  199600   -1726387.3    -8.764242   -12.020638    11.683962    150.81643   -177.03976    19.166146 
  199700   -1726387.3   -8.7715216   -12.010582    11.685632    150.83204   -177.03454    19.164515 
  199800   -1726387.3   -8.7798027   -12.000569    11.687675    150.84747   -177.03001    19.162344 
  199900   -1726387.3   -8.7891144   -11.991925    11.688257    150.86397   -177.02381     19.15953 
  200000   -1726387.3   -8.7980153   -11.982487    11.688891    150.88032    -177.0184    19.157862 
  200100   -1726387.3   -8.8061235   -11.973139    11.689823    150.89568   -177.01339    19.156025 
  200200   -1726387.3   -8.8135483   -11.962435    11.690477    150.91101   -177.00787    19.155028 
  200300   -1726387.3   -8.8223398   -11.953664    11.690047    150.92561   -177.00204     19.15316 
  200400   -1726387.3   -8.8300499   -11.945098    11.690256    150.94032   -176.99635    19.151263 
  200500   -1726387.3   -8.8378103   -11.934982    11.690375    150.95403   -176.99083    19.149568 
  200600   -1726387.3   -8.8457633   -11.926168    11.690353    150.96893   -176.98554    19.147955 
  200700   -1726387.3   -8.8540851   -11.917444    11.690073    150.98306   -176.98036     19.14573 
  200800   -1726387.3   -8.8603319   -11.906398    11.691307    150.99668   -176.97516     19.14424 
  200900   -1726387.3    -8.867884    -11.89711    11.691757    151.01076   -176.96964    19.142491 
  201000   -1726387.3   -8.8755328   -11.887641    11.692198    151.02474   -176.96401    19.140835 
  201100   -1726387.3   -8.8827389   -11.878913    11.691442    151.03964    -176.9582    19.139475 
  201200   -1726387.3   -8.8888861   -11.870181    11.692277    151.05414   -176.95235    19.137788 
  201300   -1726387.3   -8.8964845   -11.860259    11.694081    151.06846   -176.94711    19.136063 
  201400   -1726387.3   -8.9037274   -11.850522    11.694528    151.08302   -176.94133    19.134537 
  201500   -1726387.3   -8.9111651    -11.84113    11.694612    151.09764   -176.93588    19.132992 
  201600   -1726387.3   -8.9187006   -11.831991    11.695802    151.11199   -176.93033    19.130974 
  201700   -1726387.3   -8.9259315    -11.82328    11.695181    151.12697   -176.92377    19.128961 
  201800   -1726387.3   -8.9336901   -11.814224    11.695394    151.14194   -176.91778    19.127157 
  201900   -1726387.3   -8.9411943   -11.805237    11.695295    151.15654   -176.91218    19.125603 
  202000   -1726387.3   -8.9500505   -11.796851    11.695648    151.17138   -176.90647    19.123644 
  202100   -1726387.3   -8.9570917   -11.788795    11.696079    151.18604   -176.90099    19.122017 
  202200   -1726387.3   -8.9651096   -11.780433    11.696554    151.19993   -176.89616    19.119906 
  202300   -1726387.3   -8.9727275   -11.771932    11.697739    151.21359   -176.89081     19.11821 
  202400   -1726387.3   -8.9801191   -11.763313     11.69826    151.22715   -176.88537    19.116299 
  202500   -1726387.3   -8.9858142   -11.755212    11.698884    151.23989   -176.88089    19.114851 
  202600   -1726387.3   -8.9931187   -11.746498    11.698943     151.2532   -176.87554    19.113497 
  202700   -1726387.3   -8.9996592   -11.737346    11.699705     151.2667   -176.86993    19.112056 
  202800   -1726387.3   -9.0060959   -11.728251    11.700357    151.28027    -176.8643    19.110347 
  202900   -1726387.3   -9.0132626   -11.720057    11.701114    151.29385    -176.8587    19.108321 
  203000   -1726387.3   -9.0203424   -11.711743    11.701356    151.30673   -176.85351    19.106372 
  203100   -1726387.3    -9.027204   -11.702867    11.702295    151.31941   -176.84764    19.104374 
  203200   -1726387.3   -9.0347562   -11.694507    11.702889    151.33202   -176.84211    19.102862 
  203300   -1726387.3   -9.0415478   -11.685524    11.703049    151.34467   -176.83655    19.101923 
  203400   -1726387.3   -9.0480847   -11.677401    11.703559    151.35759   -176.83101    19.100264 
  203500   -1726387.3   -9.0547571   -11.668141    11.704896    151.36973   -176.82569    19.098477 
  203600   -1726387.3   -9.0610958   -11.659204    11.705598    151.38248   -176.82011    19.097017 
  203700   -1726387.3   -9.0680617   -11.649702    11.706175    151.39527   -176.81446     19.09553 
  203800   -1726387.3    -9.074405     -11.6403    11.707101    151.40845   -176.80862      19.0938 
  203900   -1726387.3   -9.0812711   -11.631849    11.707716    151.42144    -176.8029    19.092062 
  204000   -1726387.3   -9.0877567   -11.624179    11.707434    151.43424   -176.79679    19.090116 
  204100   -1726387.3   -9.0937981   -11.614839    11.708703     151.4471   -176.79135    19.088207 
  204200   -1726387.3   -9.1001668   -11.607455    11.709076    151.45939    -176.7859    19.087341 
  204300   -1726387.3   -9.1067266   -11.598302    11.710521    151.47176   -176.78001     19.08577 
  204400   -1726387.3   -9.1139802   -11.589705    11.710664     151.4837   -176.77437     19.08402 
  204500   -1726387.3   -9.1207005   -11.580651     11.71131    151.49615    -176.7686    19.082171 
  204600   -1726387.3   -9.1273985   -11.571537    11.711982    151.50857   -176.76247    19.080763 
  204700   -1726387.3   -9.1336743   -11.563189    11.712649    151.52073   -176.75625    19.079209 
  204800   -1726387.3   -9.1387909   -11.554671    11.713616    151.53358   -176.75041    19.077002 
  204900   -1726387.3   -9.1449416   -11.546229    11.714179    151.54613   -176.74456    19.075013 
  205000   -1726387.3   -9.1517125   -11.537893    11.714746    151.55822   -176.73873    19.073096 
  205100   -1726387.3   -9.1583427   -11.529406     11.71458    151.57036   -176.73296    19.071075 
  205200   -1726387.3   -9.1648488   -11.519972    11.713775    151.58259   -176.72685    19.069042 
  205300   -1726387.3   -9.1724498   -11.513541    11.713089     151.5942   -176.72186     19.06728 
  205400   -1726387.3   -9.1791794   -11.506102    11.713582    151.60585   -176.71597    19.065338 
  205500   -1726387.3     -9.18612   -11.496882    11.713653    151.61776   -176.71042    19.064015 
  205600   -1726387.3   -9.1921756   -11.488233    11.713917    151.62983   -176.70511    19.062413 
  205700   -1726387.3   -9.1981653   -11.479603    11.714006    151.64125   -176.69936    19.060284 
  205800   -1726387.3   -9.2052492   -11.470826    11.714769    151.65302   -176.69363    19.058785 
  205900   -1726387.3   -9.2122846   -11.462585    11.714681    151.66441   -176.68838    19.056868 
  206000   -1726387.3   -9.2204579   -11.453278    11.714881    151.67649    -176.6829    19.054915 
  206100   -1726387.3   -9.2273643   -11.445024    11.715142    151.68773   -176.67734    19.053195 
  206200   -1726387.3   -9.2342024   -11.437525    11.715447    151.69895   -176.67168    19.051524 
  206300   -1726387.3   -9.2396799   -11.429763    11.715658    151.71055   -176.66564    19.049308 
  206400   -1726387.3   -9.2466228   -11.421636    11.715192    151.72173   -176.65941    19.047431 
  206500   -1726387.3   -9.2531594   -11.413801     11.71488    151.73309   -176.65416    19.045992 
  206600   -1726387.3   -9.2594303   -11.406055    11.715235    151.74417   -176.64843    19.044359 
  206700   -1726387.3   -9.2660459   -11.398039     11.71597    151.75619   -176.64242    19.042829 
  206800   -1726387.3   -9.2719727   -11.389586    11.716578    151.76701   -176.63657    19.041206 
  206900   -1726387.3   -9.2774114    -11.38091    11.717147    151.77761   -176.63058    19.039356 
  207000   -1726387.3   -9.2831765   -11.372451    11.717962    151.78825   -176.62447    19.037922 
  207100   -1726387.3   -9.2900583   -11.364541    11.718695    151.79828   -176.61909    19.036271 
  207200   -1726387.3   -9.2967752   -11.355672    11.719558    151.80852   -176.61373     19.03485 
  207300   -1726387.3    -9.302857   -11.346746    11.720263    151.81906   -176.60778    19.033579 
  207400   -1726387.3   -9.3091687   -11.339186    11.720952    151.83067   -176.60208     19.03244 
  207500   -1726387.3   -9.3170234   -11.332364    11.721595    151.84147    -176.5969    19.030475 
  207600   -1726387.3   -9.3234935   -11.324374    11.722236    151.85183   -176.59109    19.028679 
  207700   -1726387.3   -9.3305469   -11.316441    11.722641    151.86226   -176.58534    19.027156 
  207800   -1726387.3    -9.338269   -11.308697    11.722925    151.87293   -176.57969    19.025948 
  207900   -1726387.3   -9.3454219   -11.300407    11.723883     151.8833   -176.57357    19.024574 
  208000   -1726387.3   -9.3519519   -11.292073    11.724547    151.89421   -176.56866    19.023267 
  208100   -1726387.3   -9.3598122   -11.284397    11.724782      151.905   -176.56278    19.021721 
  208200   -1726387.3    -9.367054   -11.276409    11.725086    151.91531   -176.55703     19.02025 
  208300   -1726387.3   -9.3730652   -11.267974    11.726054    151.92555   -176.55055    19.018621 
  208400   -1726387.3    -9.379886   -11.260211    11.726418    151.93576    -176.5448    19.016985 
  208500   -1726387.3   -9.3861243   -11.252039    11.726864    151.94612   -176.53902    19.015609 
  208600   -1726387.3   -9.3928951   -11.243749     11.72837    151.95607   -176.53332    19.013997 
  208700   -1726387.3    -9.399559   -11.236175    11.728632    151.96607   -176.52755    19.012633 
  208800   -1726387.3   -9.4067878   -11.227991    11.728941    151.97592   -176.52184    19.011252 
  208900   -1726387.3   -9.4144272    -11.22029    11.729298    151.98539   -176.51601    19.009851 
  209000   -1726387.3   -9.4214293   -11.211637    11.730686    151.99492   -176.51069    19.008997 
  209100   -1726387.3   -9.4282179   -11.203168     11.73146    152.00413   -176.50478    19.007607 
  209200   -1726387.3   -9.4356231   -11.194956     11.73159    152.01376   -176.49904     19.00636 
  209300   -1726387.3   -9.4424929   -11.186482    11.731792    152.02373   -176.49328    19.005153 
  209400   -1726387.3   -9.4487028   -11.177989     11.73219    152.03385   -176.48761    19.003569 
  209500   -1726387.3   -9.4558166   -11.169111    11.732576    152.04323   -176.48179    19.002194 
  209600   -1726387.3   -9.4631979   -11.160797    11.732839    152.05301   -176.47586    19.000694 
  209700   -1726387.3   -9.4697071   -11.152871    11.732935    152.06271   -176.46974    18.999262 
  209800   -1726387.3   -9.4777466    -11.14506    11.733021     152.0725   -176.46406    18.998097 
  209900   -1726387.3   -9.4871659   -11.137384    11.732821    152.08249   -176.45799    18.997629 
  210000   -1726387.3   -9.4941577   -11.128263    11.733254    152.09198   -176.45234    18.996741 
  210100   -1726387.3   -9.5026194   -11.120445     11.73384    152.10162   -176.44726    18.995859 
  210200   -1726387.3    -9.510752   -11.112925    11.733831    152.11144   -176.44137     18.99451 
  210300   -1726387.3   -9.5187472   -11.105357    11.734007    152.12062   -176.43583     18.99326 
  210400   -1726387.3   -9.5262779   -11.097399    11.734066    152.12965   -176.43004    18.992914 
  210500   -1726387.3   -9.5339029   -11.089235    11.734108    152.13903    -176.4245    18.991045 
  210600   -1726387.3   -9.5419903   -11.080795    11.735158     152.1482   -176.41896    18.989611 
  210700   -1726387.3   -9.5496492   -11.072544    11.735651    152.15715   -176.41329    18.988372 
  210800   -1726387.3   -9.5568193   -11.062608    11.736137    152.16602   -176.40774    18.987318 
  210900   -1726387.3   -9.5644142   -11.055282    11.736536    152.17501   -176.40213    18.986118 
  211000   -1726387.3   -9.5723452   -11.047747    11.736987     152.1846   -176.39664    18.985024 
  211100   -1726387.3   -9.5799567    -11.04042    11.737307    152.19385   -176.39111    18.983946 
  211200   -1726387.3    -9.587617   -11.032029    11.738362     152.2029   -176.38578    18.982995 
  211300   -1726387.3   -9.5958248   -11.023725    11.738671    152.21168    -176.3802    18.981423 
  211400   -1726387.3   -9.6031252   -11.015301    11.739443    152.22044   -176.37484    18.980446 
  211500   -1726387.3   -9.6104999    -11.00642     11.73971    152.22907   -176.36932    18.979263 
  211600   -1726387.3   -9.6174634   -10.997101    11.740163    152.23768   -176.36382    18.978308 
  211700   -1726387.3   -9.6242141   -10.988817    11.740125    152.24681   -176.35762    18.976787 
  211800   -1726387.3   -9.6318218   -10.980675    11.739391    152.25545   -176.35139    18.975875 
  211900   -1726387.3   -9.6395197   -10.971863    11.739859    152.26433   -176.34556    18.974566 
  212000   -1726387.3   -9.6470537   -10.962873    11.739877    152.27298   -176.33953    18.973367 
  212100   -1726387.3   -9.6538464   -10.953801     11.74014    152.28249   -176.33331    18.972496 
  212200   -1726387.3   -9.6607896   -10.945433    11.740484    152.29163   -176.32727    18.970886 
  212300   -1726387.3   -9.6682441    -10.93718     11.74063    152.30042   -176.32132    18.969598 
  212400   -1726387.3   -9.6757476   -10.928864    11.740762    152.30915    -176.3154    18.968359 
  212500   -1726387.3   -9.6831517   -10.920437    11.741443     152.3178   -176.30931    18.966844 
  212600   -1726387.3   -9.6914743   -10.912301    11.741192    152.32597   -176.30276     18.96618 
  212700   -1726387.3   -9.6997341   -10.904114    11.740317      152.335   -176.29683    18.965108 
  212800   -1726387.3   -9.7068656   -10.895614    11.739555    152.34426   -176.29026    18.963478 
  212900   -1726387.3   -9.7150414   -10.888187     11.73936    152.35369   -176.28438    18.962372 
  213000   -1726387.3   -9.7228152    -10.88112      11.7394    152.36264   -176.27837    18.961189 
  213100   -1726387.3    -9.730466   -10.873373    11.739449    152.37125   -176.27238    18.959779 
  213200   -1726387.3   -9.7383281   -10.865597    11.739508     152.3801   -176.26637    18.958273 
  213300   -1726387.3   -9.7461185   -10.857634    11.739625    152.38892   -176.26037    18.956851 
  213400   -1726387.3   -9.7535872   -10.849561    11.740238    152.39757   -176.25441    18.955198 
  213500   -172638