LAMMPS (22 Aug 2018)
Processor partition = 7
# NEB for Au triple junction
# Yin Zhang
# March 25th, 2019

units			metal
boundary		p p p

atom_style		atomic
atom_modify		map array sort 0 0


read_data		init.in
  orthogonal box = (0 0 0) to (170 170 379.205)
  1 by 1 by 1 MPI processor grid
  reading atoms ...
  443580 atoms
pair_style		eam
pair_coeff		* * /home/yzhang951/Au_Al/Au_u3.eam
Reading potential file /home/yzhang951/Au_Al/Au_u3.eam with DATE: 2007-06-11

thermo			100
thermo_style	custom step etotal pxx pyy pzz pxy pyz pxz

variable		u equal part

dump			1 all cfg 1000 Au*_$u.cfg mass type xs ys zs
dump			1 all cfg 1000 Au*_7.cfg mass type xs ys zs
dump_modify		1 element Au sort id

fix				1 all neb 100
min_style		quickmin

neb				0 0.01 1000000 1000000 100 final final.in
WARNING: Using 'neigh_modify every 1 delay 0 check yes' setting during minimization (../min.cpp:168)
Neighbor list info ...
  update every 1 steps, delay 0 steps, check yes
  max neighbors/atom: 2000, page size: 100000
  master list distance cutoff = 7.55
  ghost atom cutoff = 7.55
  binsize = 3.775, bins = 46 46 101
  1 neighbor lists, perpetual/occasional/extra = 1 0 0
  (1) pair eam, perpetual
      attributes: half, newton on
      pair build: half/bin/atomonly/newton
      stencil: half/bin/3d/newton
      bin: standard
Per MPI rank memory allocation (min/avg/max) = 232.7 | 232.7 | 232.7 Mbytes
Step TotEng Pxx Pyy Pzz Pxy Pyz Pxz 
       0   -1726349.5 -0.030057096 -0.010668623 -0.042171625 0.0001360264  0.006492772  0.005719597 
     100   -1726349.6 0.0082211831  0.012186899 -0.025634955 0.0011052202  0.018039144 -0.0050448805 
     200   -1726349.6  0.012773876  0.016760394 -0.020442995 0.0023509846  0.019531104 -0.0066505884 
     300   -1726349.6  0.013475748  0.018922658 -0.019120448 0.0035999455   0.02036853 -0.0070299454 
     400   -1726349.6  0.013491032  0.020309714 -0.018670426 0.0046295824  0.020903593 -0.0070037015 
     500   -1726349.6  0.013479791  0.021398143 -0.018378351   0.00553906  0.021314318 -0.0068645105 
     600   -1726349.6  0.013525307   0.02232332 -0.018115822 0.0063874112  0.021663102 -0.006683763 
     700   -1726349.6  0.013601279  0.022992913 -0.017899929 0.0070578977  0.021922123 -0.0065198279 
     800   -1726349.6  0.013686744  0.023542276 -0.017699697 0.0076636175  0.022147263 -0.0063601045 
     900   -1726349.6  0.013758383  0.023975389 -0.017526608 0.0082073698  0.022344977 -0.0062085515 
    1000   -1726349.6  0.013797981  0.024268259 -0.017401077 0.0086428698  0.022502182 -0.006081635 
    1100   -1726349.6  0.013807066  0.024481157 -0.017305476 0.0090421519  0.022646916 -0.005960605 
    1200   -1726349.6  0.013781427   0.02461193 -0.017245219 0.0093949372  0.022776508 -0.0058493584 
    1300   -1726349.6  0.013729152  0.024667343 -0.017219961  0.009676785  0.022882084 -0.0057569688 
    1400   -1726349.6  0.013648554  0.024670185 -0.017220825  0.009933957  0.022980735 -0.0056692842 
    1500   -1726349.6  0.013543438  0.024625616 -0.017246278  0.010161678  0.023070565 -0.0055882289 
    1600   -1726349.6  0.013426336  0.024547762 -0.017289365  0.010350055  0.023147135 -0.0055180689 
    1700   -1726349.6  0.013287906  0.024435546 -0.017351255  0.010524167  0.023220173 -0.0054499865 
    1800   -1726349.6  0.013135563  0.024297062 -0.017427743  0.010678267  0.023287039 -0.0053863591 
    1900   -1726349.6  0.012987145  0.024152397 -0.017507752  0.010803063  0.023343035 -0.0053318064 
    2000   -1726349.6  0.012823596  0.023985303 -0.017600234  0.010919861  0.023397228 -0.0052775929 
    2100   -1726349.6  0.012650345  0.023801957 -0.017701683  0.011025773  0.023448142 -0.0052250132 
    2200   -1726349.6  0.012488539  0.023626315  -0.01779873  0.011111766  0.023490945 -0.0051792247 
    2300   -1726349.6  0.012319828  0.023439674 -0.017901559   0.01119073  0.023531608 -0.0051340247 
    2400   -1726349.6  0.012142965   0.02324097 -0.018010582  0.011263784  0.023570585 -0.0050887412 
    2500   -1726349.6  0.011982226  0.023058185 -0.018110324   0.01132286   0.02360322 -0.0050489786 
    2600   -1726349.6  0.011815451  0.022866706 -0.018214122  0.011377795  0.023634615 -0.005008749 
    2700   -1726349.6  0.011643652  0.022667812 -0.018321051  0.011428426  0.023664597 -0.0049680761 
    2800   -1726349.6  0.011487016  0.022485184 -0.018418285  0.011469907  0.023690003 -0.0049314292 
    2900   -1726349.6  0.011331602  0.022302915 -0.018514287  0.011507055  0.023713534 -0.0048952838 
    3000   -1726349.6  0.011173068  0.022116025 -0.018611523  0.011541159  0.023735912 -0.0048584572 
    3100   -1726349.6  0.011024023  0.021939514 -0.018702115  0.011569981  0.023755508 -0.0048237293 
    3200   -1726349.6  0.010880028  0.021768293 -0.018788699  0.011595025  0.023773146 -0.0047899551 
    3300   -1726349.6  0.010732635   0.02159237 -0.018876201  0.011617957  0.023789898 -0.0047550403 
    3400   -1726349.6  0.010595808  0.021428479 -0.018956258  0.011636898  0.023804269 -0.0047222163 
    3500   -1726349.6  0.010464047   0.02127014 -0.019032135  0.011653075  0.023817025 -0.0046901427 
    3600   -1726349.6  0.010329527  0.021107964 -0.019108228  0.011667557  0.023828929 -0.0046568413 
    3700   -1726349.6  0.010206065   0.02095865 -0.019176715  0.011679072  0.023838831 -0.0046257075 
    3800   -1726349.6  0.010084454  0.020811123 -0.019242783  0.011688771  0.023847593 -0.0045944368 
    3900   -1726349.6 0.0099611119   0.02066102 -0.019308253  0.011696951  0.023855434 -0.0045620399 
    4000   -1726349.6  0.009849041  0.020524197 -0.019366284  0.011702935    0.0238616 -0.0045319485 
    4100   -1726349.6 0.0097395423   0.02039009 -0.019421535  0.011707442  0.023866701 -0.0045018894 
    4200   -1726349.6 0.0096292776  0.020254592 -0.019475621  0.011710628  0.023870864 -0.0044709091 
    4300   -1726349.6 0.0095240321   0.02012481 -0.019525692  0.011712385  0.023873875 -0.004440623 
    4400   -1726349.6 0.0094261361  0.020003661 -0.019570814  0.011712874  0.023875781 -0.0044117792 
    4500   -1726349.6 0.0093274754  0.019881117 -0.019614787  0.011712226   0.02387678 -0.0043820126 
    4600   -1726349.6  0.009230945  0.019760746 -0.019656267  0.011710458  0.023876805 -0.0043521709 
    4700   -1726349.6 0.0091414143  0.019648651 -0.019693301   0.01170779  0.023875937 -0.0043238227 
    4800   -1726349.6 0.0090525077  0.019536871 -0.019728637  0.011704136  0.023874175 -0.0042950015 
    4900   -1726349.6 0.0089633123  0.019424223 -0.019762579  0.011699436  0.023871452 -0.0042653837 
    5000   -1726349.6 0.0088836262   0.01932312 -0.019791567  0.011694336  0.023868163 -0.0042383012 
    5100   -1726349.6 0.0088021972  0.019219318 -0.019819835   0.01168822  0.023863919 -0.0042099962 
    5200   -1726349.6 0.0087207773  0.019114993  -0.01984668  0.011681165  0.023858734 -0.0041810341 
    5300   -1726349.6 0.0086458813   0.01901852 -0.019870077  0.011673822  0.023853087  -0.00415379 
    5400   -1726349.6 0.0085731959  0.018924393 -0.019891555   0.01166589  0.023846759 -0.0041267805 
    5500   -1726349.6 0.0084984136  0.018826995 -0.019912356  0.011656879  0.023839335 -0.004098391 
    5600   -1726349.6  0.008431142  0.018738865 -0.019929914  0.011648017  0.023831824 -0.0040723193 
    5700   -1726349.6 0.0083624882  0.018648385  -0.01994668  0.011638214  0.023823309 -0.0040451795 
    5800   -1726349.6 0.0082949506  0.018558809 -0.019962014  0.011627805  0.023814056 -0.0040179467 
    5900   -1726349.6 0.0082321172  0.018474932 -0.019975229  0.011617421  0.023804633 -0.0039921265 
    6000   -1726349.6 0.0081684761  0.018389413 -0.019987564  0.011606202  0.023794256 -0.0039654926 
    6100   -1726349.6 0.0081046458  0.018303035 -0.019998862  0.011594224  0.023782972 -0.0039382868 
    6200   -1726349.6 0.0080460443  0.018223166 -0.020008278  0.011582575   0.02377181 -0.0039128715 
    6300   -1726349.6  0.007988309  0.018143916  -0.02001665  0.011570475  0.023760035 -0.0038874184 
    6400   -1726349.6 0.0079301513  0.018063492 -0.020024172   0.01155765  0.023747368 -0.0038613628 
    6500   -1726349.6 0.0078734228   0.01798444 -0.020030623  0.011544515  0.023734206 -0.0038355444 
    6600   -1726349.6 0.0078204616  0.017910069 -0.020035854  0.011531687  0.023721179 -0.0038110805 
    6700   -1726349.6 0.0077658124  0.017832725 -0.020040452  0.011517869  0.023706966 -0.0037854734 
    6800   -1726349.6 0.0077134802  0.017758059 -0.020044094  0.011504078  0.023692603 -0.0037606076 
    6900   -1726349.6   0.00766337  0.017685987 -0.020046886  0.011490352  0.023678141 -0.0037364828 
    7000   -1726349.6 0.0076119255  0.017611384  -0.02004905  0.011475728  0.023662556 -0.0037113982 
    7100   -1726349.6 0.0075621351  0.017538565  -0.02005047  0.011461055  0.023646744 -0.0036868165 
    7200   -1726349.6 0.0075152596  0.017469433 -0.020051206  0.011446769  0.023631189 -0.0036634032 
    7300   -1726349.6 0.0074673039  0.017398109 -0.020051362  0.011431679  0.023614591 -0.0036391824 
    7400   -1726349.6 0.0074188843  0.017325458 -0.020050915  0.011415952  0.023597118 -0.003614456 
    7500   -1726349.6 0.0073746237  0.017258467 -0.020049979  0.011401141  0.023580506 -0.003591618 
    7600   -1726349.6 0.0073303045  0.017190813 -0.020048546  0.011385894   0.02356325 -0.003568528 
    7700   -1726349.6 0.0072850315  0.017121092 -0.020046577  0.011369886   0.02354497 -0.0035447156 
    7800   -1726349.6  0.007240619  0.017052076 -0.020044156  0.011353757  0.023526387 -0.0035211388 
    7900   -1726349.6 0.0071995204  0.016987648 -0.020041491  0.011338455  0.023508609 -0.0034991324 
    8000   -1726349.6 0.0071573171  0.016920908 -0.020038337  0.011322365  0.023489765 -0.0034763496 
    8100   -1726349.6 0.0071149875  0.016853365 -0.020034755  0.011305843  0.023470259 -0.0034533144 
    8200   -1726349.6 0.0070756307  0.016790007 -0.020031056  0.011290136  0.023451571 -0.0034317342 
    8300   -1726349.6 0.0070349354  0.016723916 -0.020026864  0.011273546  0.023431684 -0.0034092587 
    8400   -1726349.6 0.0069936417  0.016656236 -0.020022236  0.011256348  0.023410913 -0.0033862889 
    8500   -1726349.6 0.0069540879  0.016590813 -0.020017455  0.011239533  0.023390454 -0.0033641355 
    8600   -1726349.6 0.0069171084  0.016529109 -0.020012684   0.01122351  0.023370822 -0.0033432922 
    8700   -1726349.6 0.0068795674  0.016465925 -0.020007547  0.011206944   0.02335039 -0.0033220054 
    8800   -1726349.6 0.0068411159   0.01640063 -0.020001985  0.011189665  0.023328934 -0.0033000723 
    8900   -1726349.6 0.0068034363  0.016336067 -0.019996244  0.011172427  0.023307386 -0.0032784551 
    9000   -1726349.6 0.0067685036  0.016275688  -0.01999067  0.011156177  0.023286943 -0.0032583053 
    9100   -1726349.6 0.0067323314  0.016212628 -0.019984646  0.011139077    0.0232653 -0.0032373332 
    9200   -1726349.6 0.0066965527  0.016149706  -0.01997844  0.011121892  0.023243414 -0.0032164842 
    9300   -1726349.6  0.006662413   0.01608915 -0.019972292  0.011105241  0.023222083 -0.0031964943 
    9400   -1726349.6 0.0066267554  0.016025353 -0.019965637  0.011087588  0.023199335 -0.0031755177 
    9500   -1726349.6 0.0065936314  0.015965581 -0.019959246  0.011070951  0.023177772 -0.0031559439 
    9600   -1726349.6 0.0065598765  0.015904158 -0.019952526  0.011053759  0.023155367 -0.0031359114 
    9700   -1726349.6 0.0065249798  0.015840107 -0.019945363  0.011035735  0.023131745 -0.0031151121 
    9800   -1726349.6 0.0064929606  0.015780837   -0.0199386  0.011018974  0.023109658 -0.0030959496 
    9900   -1726349.6 0.0064610223  0.015721234 -0.019931673  0.011002041   0.02308723 -0.0030767615 
   10000   -1726349.6 0.0064282865  0.015659635 -0.019924387  0.010984466  0.023063828 -0.0030570189 
   10100   -1726349.6   0.00639605  0.015598467  -0.01991703   0.01096694  0.023040372 -0.0030375042 
   10200   -1726349.6 0.0063654841  0.015539997 -0.019909888  0.010950123  0.023017752 -0.003018934 
   10300   -1726349.6 0.0063335334  0.015478381 -0.019902249  0.010932336  0.022993711 -0.0029994542 
   10400   -1726349.6 0.0063035722  0.015420136 -0.019894926  0.010915464  0.022970796 -0.0029811246 
   10500   -1726349.6 0.0062729979  0.015360226 -0.019887294  0.010898054   0.02294704 -0.0029623575 
   10600   -1726349.6  0.006242919  0.015300818 -0.019879629  0.010880738    0.0229233 -0.002943834 
   10700   -1726349.6 0.0062134682  0.015242194 -0.019871973    0.0108636  0.022899699 -0.002925639 
   10800   -1726349.6 0.0061832189  0.015181505 -0.019863953   0.01084581  0.022875088 -0.0029068916 
   10900   -1726349.6 0.0061550375  0.015124527 -0.019856338  0.010829064   0.02285182 -0.0028893716 
   11000   -1726349.6  0.006125578  0.015064508  -0.01984823  0.010811382  0.022827144 -0.0028710017 
   11100   -1726349.6 0.0060972033  0.015006254 -0.019840277   0.01079418  0.022803034 -0.002853255 
   11200   -1726349.6 0.0060693189  0.014948577 -0.019832322  0.010777111  0.022779012 -0.0028357638 
   11300   -1726349.6  0.006040354  0.014888208 -0.019823913  0.010759208  0.022753709 -0.0028175413 
   11400   -1726349.6 0.0060136556  0.014832148 -0.019816028   0.01074255   0.02273007 -0.0028006966 
   11500   -1726349.6 0.0059858496  0.014773334 -0.019807678  0.010725041  0.022705125 -0.0027831034 
   11600   -1726349.6 0.0059589213  0.014715957 -0.019799456  0.010707928  0.022680649 -0.0027660177 
   11700   -1726349.6  0.005932229  0.014658671 -0.019791172  0.010690814  0.022656076 -0.0027490345 
   11800   -1726349.6  0.005904878  0.014599543 -0.019782545   0.01067312  0.022630572 -0.0027315837 
   11900   -1726349.6 0.0058793813  0.014544029 -0.019774374  0.010656482  0.022606499 -0.0027152711 
   12000   -1726349.6 0.0058526633  0.014485444 -0.019765676  0.010638897  0.022580962 -0.0026981305 
   12100   -1726349.6 0.0058269126  0.014428578 -0.019757159  0.010621803  0.022556047 -0.0026815654 
   12200   -1726349.6 0.0058016827  0.014372474 -0.019748686  0.010604915  0.022531344 -0.0026652913 
   12300   -1726349.6 0.0057756692  0.014314225 -0.019739813  0.010587357   0.02250557 -0.0026484662 
   12400   -1726349.6 0.0057504653  0.014257394 -0.019731083  0.010570205  0.022480301 -0.0026321204 
   12500   -1726349.6  0.005726112  0.014202109  -0.01972252  0.010553499  0.022455605 -0.0026162838 
   12600   -1726349.6 0.0057007632  0.014144172 -0.019713471  0.010535971  0.022429604 -0.0025997553 
   12700   -1726349.6 0.0056766609  0.014088711 -0.019704737  0.010519172  0.022404601 -0.0025839973 
   12800   -1726349.6 0.0056527464   0.01403332 -0.019695942  0.010502375  0.022379519 -0.0025683203 
   12900   -1726349.6 0.0056282455  0.013976192 -0.019686796  0.010485032  0.022353538 -0.0025522155 
   13000   -1726349.6  0.005604046   0.01391939 -0.019677626   0.01046777   0.02232759 -0.0025362652 
   13100   -1726349.6 0.0055812426  0.013865517 -0.019668857   0.01045138  0.022302877 -0.0025211946 
   13200   -1726349.6 0.0055577418  0.013809642 -0.019659689  0.010434364   0.02227714 -0.0025056215 
   13300   -1726349.6 0.0055337509  0.013752227 -0.019650189  0.010416862  0.022250582 -0.0024896796 
   13400   -1726349.6  0.005511707  0.013699136 -0.019641332  0.010400661  0.022225925 -0.0024749917 
   13500   -1726349.6 0.0054890598  0.013644254 -0.019632101  0.010383898  0.022200335 -0.0024598613 
   13600   -1726349.6 0.0054656989  0.013587281 -0.019622439  0.010366479  0.022173664 -0.0024442105 
   13700   -1726349.6 0.0054442846  0.013534731 -0.019613453  0.010350398  0.022148967 -0.0024298245 
   13800   -1726349.6 0.0054221783  0.013480154 -0.019604045   0.01033368  0.022123221 -0.0024149332 
   13900   -1726349.6 0.0053998187  0.013424611 -0.019594389  0.010316651  0.022096917 -0.0023998293 
   14000   -1726349.6 0.0053788466  0.013372199 -0.019585203  0.010300568  0.022072003 -0.0023856232 
   14100   -1726349.6 0.0053569281  0.013317094 -0.019575464  0.010283642  0.022045712 -0.0023707347 
   14200   -1726349.6  0.005335906  0.013263925 -0.019565989  0.010267297  0.022020251 -0.0023564151 
   14300   -1726349.6 0.0053149508  0.013210614  -0.01955641  0.010250893  0.021994629 -0.0023421009 
   14400   -1726349.6  0.005293497  0.013155712 -0.019546462  0.010233984  0.021968146 -0.0023274044 
   14500   -1726349.6 0.0052734374  0.013104077 -0.019537027  0.010218067  0.021943149 -0.0023136236 
   14600   -1726349.6 0.0052524753  0.013049808 -0.019527028  0.010201324  0.021916785 -0.0022991818 
   14700   -1726349.6 0.0052323037  0.012997284 -0.019517269  0.010185104  0.021891178 -0.0022852446 
   14800   -1726349.6  0.005212344  0.012945018 -0.019507477   0.01016895  0.021865608 -0.002271414 
   14900   -1726349.6  0.005191519  0.012890172 -0.019497113  0.010151983  0.021838681 -0.0022569413 
   15000   -1726349.6 0.0051724348  0.012839629 -0.019487481  0.010136333   0.02181378 -0.0022436396 
   15100   -1726349.6 0.0051527465  0.012787199 -0.019477406  0.010120085  0.021787864 -0.002229877 
   15200   -1726349.6  0.005132468  0.012732892  -0.01946688   0.01010324  0.021760926 -0.0022156592 
   15300   -1726349.6 0.0051139026    0.0126829 -0.019457108  0.010087718  0.021736044 -0.0022026037 
   15400   -1726349.6 0.0050947226  0.012630975 -0.019446874  0.010071583  0.021710115 -0.0021890763 
   15500   -1726349.6 0.0050751324  0.012577649 -0.019436272  0.010054997  0.021683395 -0.0021752176 
   15600   -1726349.6 0.0050569728  0.012527951 -0.019426308  0.010039525  0.021658411 -0.002162332 
   15700   -1726349.6  0.005038124  0.012476096 -0.019415823  0.010023367  0.021632256 -0.0021489173 
   15800   -1726349.6 0.0050192679  0.012423941 -0.019405187  0.010007101  0.021605864 -0.0021354559 
   15900   -1726349.6 0.0050014634  0.012374438 -0.019395005 0.0099916466   0.02158073 -0.0021227064 
   16000   -1726349.6 0.0049829074  0.012322577 -0.019384248 0.0099754415  0.021554314 -0.0021093779 
   16100   -1726349.6 0.0049651005  0.012272551 -0.019373783 0.0099597953   0.02152875 -0.0020965478 
   16200   -1726349.6 0.0049475583  0.012223019 -0.019363334 0.0099442891  0.021503357 -0.0020838697 
   16300   -1726349.6 0.0049293391  0.012171312 -0.019352333 0.0099280863  0.021476763 -0.0020706608 
   16400   -1726349.6 0.0049124622  0.012123174 -0.019342004 0.0099129878  0.021451925 -0.0020583871 
   16500   -1726349.6 0.0048953435  0.012074107 -0.019331389 0.0098975833   0.02142653 -0.0020458991 
   16600   -1726349.6 0.0048777024   0.01202329 -0.019320302  0.009881614  0.021400144 -0.0020329894 
   16700   -1726349.6 0.0048615382  0.011976501 -0.019310008 0.0098668964  0.021375775 -0.0020211234 
   16800   -1726349.6 0.0048446884  0.011927495 -0.019299138 0.0098514669  0.021350172 -0.0020087159 
   16900   -1726349.6 0.0048282368  0.011879418 -0.019288385 0.0098363151  0.021324976 -0.0019965635 
   17000   -1726349.6 0.0048121546    0.0118322 -0.019277737 0.0098214194  0.021300154 -0.0019846467 
   17100   -1726349.6 0.0047955952  0.011783351 -0.019266631 0.0098059945  0.021274396 -0.0019723376 
   17200   -1726349.6 0.0047801492  0.011737576 -0.019256138 0.0097915257  0.021250185 -0.0019608199 
   17300   -1726349.6 0.0047638786  0.011689135 -0.019244943 0.0097761995  0.021224487 -0.001948649 
   17400   -1726349.6 0.0047487263  0.011643819 -0.019234386 0.0097618479  0.021200374 -0.001937279 
   17500   -1726349.6 0.0047329885  0.011596541 -0.019223282 0.0097468598  0.021175141 -0.0019254323 
   17600   -1726349.6 0.0047177849  0.011550663 -0.019212421 0.0097323014  0.021150582 -0.0019139516 
   17700   -1726349.6 0.0047026887  0.011504908 -0.019201502 0.0097177674  0.021126016 -0.0019025158 
   17800   -1726349.6 0.0046872262  0.011457835 -0.019190177 0.0097027998  0.021100666 -0.0018907651 
   17900   -1726349.6 0.0046728161  0.011413775 -0.019179493  0.009688776  0.021076869 -0.0018797792 
   18000   -1726349.6 0.0046577313  0.011367454 -0.019168172 0.0096740176  0.021051776 -0.0018682424 
   18100   -1726349.6 0.0046432564  0.011322815 -0.019157175 0.0096597809  0.021027523 -0.0018571369 
   18200   -1726349.6 0.0046289341  0.011278461 -0.019146164 0.0096456205  0.021003355 -0.0018461134 
   18300   -1726349.6 0.0046140294  0.011232107 -0.019134564 0.0096308063  0.020978021 -0.0018346046 
   18400   -1726349.6 0.0046003916  0.011189516 -0.019123823  0.009617181  0.020954677 -0.0018240404 
   18500   -1726349.6 0.0045862418  0.011145147 -0.019112548 0.0096029723  0.020930287 -0.001813045 
   18600   -1726349.6  0.004571718  0.011099414 -0.019100835 0.0095883114  0.020905074 -0.0018017221 
   18700   -1726349.6 0.0045581364  0.011056474 -0.019089751 0.0095745314   0.02088133 -0.0017910996 
   18800   -1726349.6 0.0045447641  0.011014028 -0.019078713  0.009560896  0.020857794 -0.0017806078 
   18900   -1726349.6 0.0045310029  0.010970174 -0.019067222 0.0095467938  0.020833407 -0.0017697764 
   19000   -1726349.6 0.0045173322  0.010926435 -0.019055674 0.0095327135  0.020809012 -0.0017589814 
   19100   -1726349.6 0.0045044229   0.01088497 -0.019044643 0.0095193516   0.02078582 -0.0017487549 
   19200   -1726349.6  0.004490956  0.010841548 -0.019033006  0.009505344  0.020761464 -0.0017380527 
   19300   -1726349.6 0.0044778476  0.010799118 -0.019021549 0.0094916423  0.020737596 -0.0017276021 
   19400   -1726349.6 0.0044651442  0.010757843 -0.019010322 0.0094782993  0.020714312 -0.0017174418 
   19500   -1726349.6 0.0044521591  0.010715494 -0.018998718 0.0094645948  0.020690354 -0.0017070232 
   19600   -1726349.6 0.0044389846  0.010672362 -0.018986811  0.009450622  0.020665883 -0.001696418 
   19700   -1726349.6 0.0044263254  0.010630762 -0.018975242  0.009437131  0.020642213 -0.0016861947 
   19800   -1726349.6 0.0044141755   0.01059069 -0.018964017 0.0094241216  0.020619349 -0.0016763515 
   19900   -1726349.6 0.0044016576  0.010549255 -0.018952327 0.0094106556  0.020595641 -0.0016661781 
   20000   -1726349.6 0.0043890042  0.010507218 -0.018940382 0.0093969792  0.020571519 -0.0016558613 
   20100   -1726349.6 0.0043772077  0.010467887 -0.018929125 0.0093841694  0.020548887 -0.0016462123 
   20200   -1726349.6 0.0043650992  0.010427375 -0.018917449  0.009370961  0.020525511 -0.0016362771 
   20300   -1726349.6 0.0043526209  0.010385475 -0.018905286 0.0093572855  0.020501266 -0.0016260052 
   20400   -1726349.6 0.0043411952  0.010346976 -0.018894032 0.0093447064  0.020478926  -0.00161657 
   20500   -1726349.6 0.0043294105  0.010307133 -0.018882304 0.0093316742  0.020455742 -0.0016068078 
   20600   -1726349.6 0.0043172817  0.010265982 -0.018870107 0.0093181998   0.02043173 -0.001596728 
   20700   -1726349.6 0.0043058366  0.010227019 -0.018858477 0.0093054278  0.020408931 -0.0015871863 
   20800   -1726349.6 0.0042945565   0.01018849 -0.018846898 0.0092927845  0.020386324 -0.0015777525 
   20900   -1726349.6 0.0042829723   0.01014879 -0.018834886 0.0092797431  0.020362965 -0.0015680339 
   21000   -1726349.6 0.0042711656  0.010108189 -0.018822516 0.0092663911  0.020339009 -0.0015580964 
   21100   -1726349.6 0.0042601381  0.010070143 -0.018810845 0.0092538656  0.020316497 -0.0015487855 
   21200   -1726349.6 0.0042492422   0.01003243   -0.0187992 0.0092414366  0.020294122 -0.0015395569 
   21300   -1726349.6 0.0042380702  0.009993638 -0.018787142  0.009228638  0.020271043 -0.0015300649 
   21400   -1726349.6 0.0042268497 0.0099545515  -0.01877491 0.0092157283  0.020247724 -0.0015205016 
   21500   -1726349.6 0.0042163462 0.0099178467 -0.018763348 0.0092035922  0.020225767 -0.0015115213 
   21600   -1726349.6 0.0042054004 0.0098794773 -0.018751183 0.0091908921  0.020202751 -0.0015021338 
   21700   -1726349.6 0.0041947111 0.0098418906 -0.018739188 0.0091784376  0.020180142 -0.0014929378 
   21800   -1726349.6 0.0041842904  0.009805136 -0.018727383 0.0091662457  0.020157974 -0.001483945 
   21900   -1726349.6 0.0041733827 0.0097665457 -0.018714907  0.009153431  0.020134635 -0.0014745026 
   22000   -1726349.6 0.0041633658 0.0097310003 -0.018703343 0.0091416148  0.020113079 -0.0014658047 
   22100   -1726349.6 0.0041528724 0.0096936536 -0.018691116 0.0091291865   0.02009037 -0.0014566651 
   22200   -1726349.6 0.0041425226 0.0096567088 -0.018678943 0.0091168787  0.020067843 -0.0014476229 
   22300   -1726349.6 0.0041325817 0.0096211196 -0.018667144 0.0091050098  0.020046085 -0.0014389113 
   22400   -1726349.6 0.0041222953 0.0095841868 -0.018654823 0.0090926797  0.020023444 -0.0014298695 
   22500   -1726349.6 0.0041120015 0.0095471197 -0.018642378 0.0090802912  0.020000659 -0.0014207933 
   22600   -1726349.6 0.0041022498 0.0095119033 -0.018630482 0.0090685085  0.019978952 -0.0014121685 
   22700   -1726349.6 0.0040924855 0.0094765435 -0.018618465 0.0090566654    0.0199571 -0.0014035069 
   22800   -1726349.6 0.0040824171 0.0094399799 -0.018605962  0.009044406  0.019934442 -0.0013945485 
   22900   -1726349.6 0.0040728368 0.0094050925  -0.01859396  0.009032696  0.019912764 -0.0013859987 
   23000   -1726349.6 0.0040633121 0.0093703133 -0.018581924   0.00902101  0.019891097 -0.0013774731 
   23100   -1726349.6 0.0040533867 0.0093339712 -0.018569271 0.0090087857  0.019868394 -0.001368562 
   23200   -1726349.6 0.0040442765 0.0093005254 -0.018557557 0.0089975238  0.019847445 -0.0013603588 
   23300   -1726349.6 0.0040347558   0.00926548 -0.018545211 0.0089857109  0.019825437 -0.0013517606 
   23400   -1726349.6 0.0040254072 0.0092309781 -0.018532985 0.0089740689  0.019803712 -0.0013432931 
   23500   -1726349.6  0.004016286 0.0091972277 -0.018520956 0.0089626685  0.019782404 -0.0013350071 
   23600   -1726349.6 0.0040067224 0.0091617487 -0.018508236 0.0089506714  0.019759945 -0.0013262937 
   23700   -1726349.6 0.0039979591 0.0091291558 -0.018496485 0.0089396387  0.019739258 -0.0013182863 
   23800   -1726349.6  0.003988766 0.0090948787 -0.018484056 0.0089280239  0.019717445 -0.0013098618 
   23900   -1726349.6  0.003979767 0.0090612418 -0.018471789 0.0089166141  0.019695983 -0.0013015915 
   24000   -1726349.6 0.0039709562 0.0090282267 -0.018459681 0.0089054034  0.019674863 -0.0012934707 
   24100   -1726349.6 0.0039617088 0.0089934897 -0.018446869 0.0088935957  0.019652582 -0.0012849227 
   24200   -1726349.6  0.003953236 0.0089615861 -0.018435037 0.0088827398  0.019632064 -0.0012770686 
   24300   -1726349.6 0.0039444133 0.0089282855 -0.018422618 0.0088713969  0.019610593 -0.0012688669 
   24400   -1726349.6 0.0039354148 0.0088942397  -0.01840985  0.008859788  0.019588582 -0.0012604777 
   24500   -1726349.6 0.0039271067 0.0088627319 -0.018397969 0.0088490334  0.019568158 -0.0012527102 
   24600   -1726349.6 0.0039183958 0.0088296202 -0.018385416 0.0088377197   0.01954664 -0.0012445434 
   24700   -1726349.6 0.0039098384 0.0087970171 -0.018372987 0.0088265683  0.019525396 -0.001236498 
   24800   -1726349.6 0.0039015201 0.0087652525 -0.018360814 0.0088156924  0.019504644 -0.0012286555 
   24900   -1726349.6 0.0038928353  0.008732013 -0.018348005 0.0088042999  0.019482872 -0.0012204445 
   25000   -1726349.6  0.003884685 0.0087007505 -0.018335895  0.008793574  0.019462342 -0.0012127178 
   25100   -1726349.6 0.0038763558 0.0086687309 -0.018323425 0.0087825772   0.01944126 -0.0012047996 
   25200   -1726349.6 0.0038679347  0.008636287 -0.018310723 0.0087714232  0.019419842 -0.001196772 
   25300   -1726349.6  0.003859955  0.008605477 -0.018298597 0.0087608202   0.01939945 -0.0011891443 
   25400   -1726349.6 0.0038515686 0.0085730269 -0.018285759 0.0087496414  0.019377916 -0.0011811059 
   25500   -1726349.6 0.0038436242 0.0085422229 -0.018273508 0.0087390189  0.019357422 -0.0011734707 
   25600   -1726349.6 0.0038355956 0.0085110269 -0.018261038 0.0087282504  0.019336613 -0.0011657338 
   25700   -1726349.6 0.0038274154 0.0084791764  -0.01824824 0.0087172448  0.019315313 -0.0011578296 
   25800   -1726349.6 0.0038196961 0.0084490579 -0.018236076 0.0087068272  0.019295118 -0.0011503506 
   25900   -1726349.6 0.0038115516 0.0084172161  -0.01822315 0.0086958025  0.019273712 -0.0011424387 
   26000   -1726349.6 0.0038039032 0.0083872546 -0.018210926 0.0086854185  0.019253519 -0.0011349892 
   26100   -1726349.6 0.0037960785 0.0083565416 -0.018198333 0.0086747634  0.019232765 -0.0011273479 
   26200   -1726349.6 0.0037881987 0.0083255525 -0.018185563 0.0086640019  0.019211771 -0.0011196328 
   26300   -1726349.6 0.0037806739 0.0082959008 -0.018173282 0.0086536945  0.019191631 -0.0011122456 
   26400   -1726349.6 0.0037727309 0.0082645422 -0.018160231 0.0086427829  0.019170276 -0.0011044279 
   26500   -1726349.6  0.003765417 0.0082356119  -0.01814813 0.0086327064  0.019150524 -0.0010972106 
   26600   -1726349.6 0.0037576192 0.0082047104 -0.018135142 0.0086219327  0.019129373 -0.0010894961 
   26700   -1726349.6 0.0037502857 0.0081755955 -0.018122845 0.0086117721  0.019109393 -0.0010822226 
   26800   -1726349.6 0.0037427772 0.0081457315 -0.018110171 0.0086013398  0.019088846 -0.0010747565 
   26900   -1726349.6 0.0037351389 0.0081152965 -0.018097192 0.0085906975  0.019067852 -0.0010671422 
   27000   -1726349.6 0.0037279639 0.0080866556 -0.018084919 0.0085806729  0.019048045 -0.0010599714 
   27100   -1726349.6 0.0037205405  0.008056972 -0.018072138 0.0085702733  0.019027465 -0.0010525341 
   27200   -1726349.6 0.0037130309   0.00802689 -0.018059124 0.0085597237  0.019006554 -0.0010449913 
   27300   -1726349.6 0.0037056307 0.0079971958 -0.018046215 0.0085492999  0.018985858  -0.00103754 
   27400   -1726349.6 0.0036986122 0.0079689844 -0.018033894 0.0085393872  0.018966146 -0.0010304553 
   27500   -1726349.6 0.0036913522 0.0079397538 -0.018021068 0.0085291065   0.01894567 -0.001023109 
   27600   -1726349.6 0.0036838979 0.0079096907 -0.018007813 0.0085185227  0.018924555 -0.0010155475 
   27700   -1726349.6 0.0036770496 0.0078820265  -0.01799556 0.0085087741  0.018905076 -0.0010085838 
   27800   -1726349.6 0.0036699948 0.0078534824 -0.017982859  0.008498706  0.018884926 -0.001001393 
   27900   -1726349.6 0.0036627086 0.0078239544  -0.01796966 0.0084882808  0.018864028 -0.00099394829 
   28000   -1726349.6 0.0036558631 0.0077961698 -0.017957182  0.008478462  0.018844313 -0.00098693745 
   28100   -1726349.6 0.0036489712 0.0077681533 -0.017944544 0.0084685519  0.018824383 -0.00097986232 
   28200   -1726349.6 0.0036418203 0.0077390386 -0.017931351 0.0084582436  0.018803619 -0.00097250375 
   28300   -1726349.6 0.0036349772 0.0077111359 -0.017918649 0.0084483551  0.018783668 -0.00096544561 
   28400   -1726349.6 0.0036282708 0.0076837494 -0.017906127 0.0084386405  0.018764036 -0.00095851223 
   28500   -1726349.6 0.0036213316 0.0076553705 -0.017893093 0.0084285645  0.018743642 -0.00095132156 
   28600   -1726349.6 0.0036144365 0.0076271321 -0.017880065 0.0084185291  0.018723296 -0.00094416034 
   28700   -1726349.6 0.0036078841 0.0076002576 -0.017867611 0.0084089695  0.018703883 -0.00093733914 
   28800   -1726349.6 0.0036011095 0.0075724336 -0.017854662 0.0083990631  0.018683734 -0.00093027086 
   28900   -1726349.6 0.0035942322 0.0075441486 -0.017841439 0.0083889833  0.018663198 -0.00092307915 
   29000   -1726349.6 0.0035878388 0.0075178172 -0.017829076  0.008379591  0.018644032 -0.00091637827 
   29100   -1726349.6 0.0035811718  0.007490323 -0.017816111 0.0083697751  0.018623969 -0.00090937534 
   29200   -1726349.6 0.0035744286 0.0074624776 -0.017802924 0.0083598248  0.018603598 -0.00090227665 
   29300   -1726349.6 0.0035680937 0.0074362836 -0.017790465  0.008350456  0.018584386 -0.0008955929 
   29400   -1726349.6 0.0035615724 0.0074092852 -0.017777569 0.0083407909  0.018564535 -0.00088869777 
   29500   -1726349.6 0.0035548825 0.0073815526 -0.017764266 0.0083308539  0.018544091 -0.00088160861 
   29600   -1726349.6 0.0035484003 0.0073546481 -0.017751303  0.008321205  0.018524206 -0.00087472481 
   29700   -1726349.6 0.0035421116 0.0073285146  -0.01773866 0.0083118241  0.018504843 -0.0008680321 
   29800   -1726349.6 0.0035357719 0.0073021373 -0.017725845 0.0083023474   0.01848525 -0.00086127079 
   29900   -1726349.6 0.0035292881 0.0072751284 -0.017712668 0.0082926351  0.018465137 -0.00085434113 
   30000   -1726349.6 0.0035228738 0.0072483784 -0.017699562 0.0082830074  0.018445165 -0.00084747138 
   30100   -1726349.6 0.0035167753 0.0072229157 -0.017687035 0.0082738348  0.018426107 -0.00084092608 
   30200   -1726349.6 0.0035104631 0.0071965313 -0.017674002 0.0082643221  0.018406309 -0.00083413753 
   30300   -1726349.6 0.0035041076 0.0071699371 -0.017660811 0.0082547252  0.018386303 -0.00082728843 
   30400   -1726349.6  0.003498105 0.0071447915 -0.017648287 0.0082456432  0.018367339 -0.00082080621 
   30500   -1726349.6 0.0034918597 0.0071186016  -0.01763519 0.0082361758  0.018347538 -0.00081404839 
   30600   -1726349.6 0.0034854018  0.007091491 -0.017621576 0.0082263669  0.018326987 -0.00080704598 
   30700   -1726349.6 0.0034794073 0.0070663013 -0.017608875 0.0082172452  0.018307844 -0.00080053341 
   30800   -1726349.6 0.0034734935 0.0070414247 -0.017596282 0.0082082292  0.018288892 -0.0007940956 
   30900   -1726349.6 0.0034674154 0.0070158321 -0.017583275 0.0081989458  0.018269345 -0.00078746606 
   31000   -1726349.6 0.0034612101 0.0069896777 -0.017569929 0.0081894505  0.018249319 -0.00078068425 
   31100   -1726349.6   0.00345526 0.0069645765 -0.017557069 0.0081803297   0.01823005 -0.00077416906 
   31200   -1726349.6 0.0034494125 0.0069398842 -0.017544369 0.0081713501  0.018211048 -0.00076775368 
   31300   -1726349.6 0.0034433836 0.0069144029 -0.017531212 0.0081620757   0.01819139 -0.00076112672 
   31400   -1726349.6 0.0034372285 0.0068883644 -0.017517712 0.0081525904  0.018171249 -0.00075434789 
   31500   -1726349.6 0.0034314956 0.0068640914 -0.017505079 0.0081437409  0.018152427 -0.00074802236 
   31600   -1726349.6 0.0034257292 0.0068396556 -0.017492312 0.0081348247  0.018133432 -0.00074164803 
   31700   -1726349.6 0.0034197472 0.0068142847 -0.017479005 0.0081255595   0.01811366 -0.000735023 
   31800   -1726349.6  0.003414004 0.0067899071  -0.01746617 0.0081166499  0.018094615 -0.00072865092 
   31900   -1726349.6 0.0034083044 0.0067656952 -0.017453373 0.0081077935  0.018075652 -0.00072231566 
   32000   -1726349.6 0.0034023658 0.0067404475 -0.017439977 0.0080985507  0.018055827 -0.00071570256 
   32100   -1726349.6 0.0033967434 0.0067165275 -0.017427237 0.0080897868  0.018036998 -0.00070943081 
   32200   -1726349.6 0.0033911044 0.0066925182 -0.017414401 0.0080809831  0.018018052 -0.00070312916 
   32300   -1726349.6  0.003385247 0.0066675605 -0.017401008 0.0080718242  0.017998307 -0.00069657171 
   32400   -1726349.6 0.0033797454 0.0066441031 -0.017388372  0.008063209  0.017979703 -0.00069040206 
   32500   -1726349.6 0.0033741179 0.0066200919  -0.01737539 0.0080543834  0.017960613 -0.00068408023 
   32600   -1726349.6 0.0033683942 0.0065956545 -0.017362127  0.008045394  0.017941134 -0.00067763938 
   32700   -1726349.6 0.0033629798 0.0065725222 -0.017349526 0.0080368779   0.01792265 -0.00067153612 
   32800   -1726349.6 0.0033573007  0.006548243 -0.017336252 0.0080279325  0.017903202 -0.00066512349 
   32900   -1726349.6 0.0033518154 0.0065247796 -0.017323376  0.008019281  0.017884359 -0.00065891975 
   33000   -1726349.6 0.0033463684 0.0065014648 -0.017310535 0.0080106775   0.01786559 -0.00065274881 
   33100   -1726349.6 0.0033406913 0.0064771516 -0.017297094 0.0080016985  0.017845967 -0.0006463067 
   33200   -1726349.6 0.0033354399 0.0064546486 -0.017284608 0.0079933816   0.01782776 -0.0006403378 
   33300   -1726349.6 0.0033299135 0.0064309542 -0.017271414 0.0079846177  0.017808542 -0.00063404624 
   33400   -1726349.6 0.0033243827 0.0064072296 -0.017258155 0.0079758358  0.017789251 -0.0006277398 
   33500   -1726349.6  0.003319151 0.0063847751  -0.01724556 0.0079675176  0.017770947 -0.00062176451 
   33600   -1726349.6 0.0033137176 0.0063614439 -0.017232427 0.0079588682  0.017751882 -0.00061554926 
   33700   -1726349.6   0.00330824 0.0063379125 -0.017219133 0.0079501379  0.017732604 -0.00060927383 
   33800   -1726349.6 0.0033030783 0.0063157275 -0.017206555 0.0079419008  0.017714384 -0.00060335097 
   33900   -1726349.6  0.003297686 0.0062925595 -0.017193372 0.0079332925   0.01769531 -0.00059715862 
   34000   -1726349.6 0.0032922925 0.0062693891  -0.01718014 0.0079246775  0.017676185 -0.00059095834 
   34100   -1726349.6 0.0032871716 0.0062473849 -0.017167529 0.0079164903  0.017657976 -0.00058506327 
   34200   -1726349.6 0.0032818377  0.006224462 -0.017154343 0.0079079553   0.01763896 -0.00057891497 
   34300   -1726349.6 0.0032765448 0.0062017132 -0.017141211 0.0078994793   0.01762004 -0.00057280622 
   34400   -1726349.6 0.0032714518 0.0061798196 -0.017128527 0.0078913162  0.017601786 -0.00056692025 
   34500   -1726349.6 0.0032661398 0.0061569816  -0.01711525  0.007882795  0.017582697 -0.0005607732 
   34600   -1726349.6 0.0032609419 0.0061346326  -0.01710221 0.0078744505  0.017563969 -0.00055475067 
   34700   -1726349.6 0.0032558912 0.0061129133 -0.017089492 0.0078663353  0.017545723 -0.00054889098 
   34800   -1726349.6 0.0032506588 0.0060904097  -0.01707627 0.0078579213  0.017526771 -0.00054281255 
   34900   -1726349.6 0.0032453571 0.0060676075 -0.017062824 0.0078493897  0.017507519 -0.0005366461 
   35000   -1726349.6 0.0032404272 0.0060464015 -0.017050275 0.0078414497  0.017489569 -0.00053090447 
   35100   -1726349.6 0.0032353505 0.0060245623 -0.017037307 0.0078332671  0.017471037 -0.00052498458 
   35200   -1726349.6 0.0032301701  0.006002276 -0.017024028 0.0078249112  0.017452079 -0.00051893629 
   35300   -1726349.6 0.0032249592 0.0059798582 -0.017010623 0.0078165002  0.017432959 -0.00051284497 
   35400   -1726349.6 0.0032201087 0.0059589894 -0.016998101  0.007808665  0.017415116 -0.00050716777 
   35500   -1726349.6 0.0032150811 0.0059373579 -0.016985078 0.0078005379  0.017396576 -0.00050127621 
   35600   -1726349.6 0.0032098713 0.0059149427 -0.016971536 0.0077921107  0.017377314 -0.00049516384 
   35700   -1726349.6 0.0032050849 0.0058943494 -0.016959052 0.0077843632  0.017359574 -0.00048954158 
   35800   -1726349.6 0.0032001067 0.0058729308 -0.016946024 0.0077762999  0.017341078 -0.00048368712 
   35900   -1726349.6 0.0031950284 0.0058510827 -0.016932689 0.0077680694  0.017322163 -0.00047770807 
   36000   -1726349.6 0.0031902582 0.0058305604 -0.016920121 0.0077603331  0.017304351 -0.00047208511 
   36100   -1726349.6 0.0031852533 0.0058090294 -0.016906892 0.0077522112  0.017285618 -0.00046617874 
   36200   -1726349.6  0.003180345 0.0057879161 -0.016893875 0.0077442417  0.017267202  -0.00046038 
   36300   -1726349.6 0.0031755532 0.0057673052 -0.016881125 0.0077364567  0.017249179 -0.00045471243 
   36400   -1726349.6 0.0031705557 0.0057458108 -0.016867785 0.0077283326  0.017230337 -0.00044879479 
   36500   -1726349.6 0.0031657653 0.0057252112 -0.016854957 0.0077205418  0.017212234 -0.00044311666 
   36600   -1726349.6 0.0031609809 0.0057046382 -0.016842103 0.0077127559   0.01719411 -0.00043743903 
   36700   -1726349.6 0.0031560502 0.0056834395 -0.016828814  0.007704728  0.017175387 -0.00043158155 
   36800   -1726349.6 0.0031510616 0.0056619962 -0.016815327 0.0076966022    0.0171564 -0.00042564918 
   36900   -1726349.6 0.0031463987 0.0056419551 -0.016802679 0.0076890028   0.01713861 -0.00042009791 
   37000   -1726349.6 0.0031416803 0.0056216787 -0.016789842 0.0076813093  0.017120567 -0.00041447472 
   37100   -1726349.6 0.0031368694  0.005601009 -0.016776713 0.0076734617  0.017102128 -0.00040873546 
   37200   -1726349.6 0.0031319215 0.0055797552 -0.016763167 0.0076653871   0.01708312 -0.00040282663 
   37300   -1726349.6 0.0031273449 0.0055601013 -0.016750601 0.0076579156  0.017065498 -0.00039735593 
   37400   -1726349.6 0.0031226805 0.0055400738 -0.016737754 0.0076502975  0.017047498 -0.00039177448 
   37500   -1726349.6 0.0031178902 0.0055195111 -0.016724522 0.0076424708   0.01702897 -0.00038603679 
   37600   -1726349.6 0.0031130892 0.0054989087  -0.01671122 0.0076346241  0.017010359 -0.00038028086 
   37700   -1726349.6 0.0031085538 0.0054794505 -0.016698616 0.0076272086  0.016992738 -0.00037483782 
   37800   -1726349.6 0.0031039069 0.0054595193 -0.016685666 0.0076196082  0.016974645 -0.0003692557 
   37900   -1726349.6 0.0030991437 0.0054390955 -0.016672352 0.0076118152  0.016956057 -0.00036352846 
   38000   -1726349.6 0.0030944875 0.0054191379 -0.016659299 0.0076041955  0.016937848 -0.00035792495 
   38100   -1726349.6 0.0030899631 0.0053997504  -0.01664658 0.0075967889  0.016920115 -0.00035247474 
   38200   -1726349.6 0.0030853565  0.005380017 -0.016633592 0.0075892456  0.016902022 -0.00034692043 
   38300   -1726349.6 0.0030806272 0.0053597655  -0.01662022 0.0075814996  0.016883406 -0.00034121308 
   38400   -1726349.6 0.0030759701 0.0053398315 -0.016607016 0.0075738705  0.016865035 -0.00033558808 
   38500   -1726349.6 0.0030715591 0.0053209573 -0.016594474 0.0075666426  0.016847598 -0.00033025544 
   38600   -1726349.6 0.0030670275 0.0053015743 -0.016581554 0.0075592156  0.016829647 -0.0003247723 
   38700   -1726349.6 0.0030624174 0.0052818636 -0.016568374 0.0075516586  0.016811347 -0.00031918941 
   38800   -1726349.6 0.0030577454 0.0052618962  -0.01655498 0.0075439985  0.016792761 -0.0003135265 
   38900   -1726349.6 0.0030532917 0.0052428716 -0.016542177  0.007536696  0.016775009 -0.00030812416 
   39000   -1726349.6 0.0030488936 0.0052240918 -0.016529501 0.0075294832  0.016757441 -0.00030278465 
   39100   -1726349.6 0.0030443416 0.0052046633 -0.016516345 0.0075220169  0.016739222 -0.00029725371 
   39200   -1726349.6 0.0030398064 0.0051853166 -0.016503204 0.0075145779  0.016721034 -0.00029173901 
   39300   -1726349.6 0.0030354753  0.005166849 -0.016490621 0.0075074728  0.016703629 -0.00028646821 
   39400   -1726349.6  0.003030986 0.0051477159 -0.016477545 0.0075001075  0.016685552 -0.00028100056 
   39500   -1726349.6 0.0030264325   0.00512832 -0.016464247 0.0074926369  0.016667181 -0.0002754507 
   39600   -1726349.6 0.0030221672 0.0051101602 -0.016451758 0.0074856383  0.016649937 -0.00027024783 
   39700   -1726349.6 0.0030177379 0.0050913124 -0.016438757 0.0074783706  0.016631996 -0.00026484103 
   39800   -1726349.6 0.0030133388  0.005072604 -0.016425813 0.0074711527  0.016614144 -0.00025946736 
   39900   -1726349.6 0.0030089779 0.0050540674 -0.016412947 0.0074639971  0.016596412 -0.00025413616 
   40000   -1726349.6 0.0030046199 0.0050355548  -0.01640006 0.0074568469  0.016578658 -0.0002488051 
   40100   -1726349.6 0.0030003008 0.0050172169 -0.016387255 0.0074497603  0.016561029 -0.0002435175 
   40200   -1726349.6 0.0029957708 0.0049979956 -0.016373792 0.0074423282  0.016542503 -0.00023796798 
   40300   -1726349.6 0.0029915893 0.0049802643 -0.016361334 0.0074354686  0.016525371 -0.00023284196 
   40400   -1726349.6 0.0029872814 0.0049620078 -0.016348469 0.0074284019  0.016507688 -0.00022755735 
   40500   -1726349.6 0.0029828539 0.0049432559 -0.016335214 0.0074211396   0.01648948 -0.00022212222 
   40600   -1726349.6 0.0029785761 0.0049251512 -0.016322379 0.0074141243  0.016471856 -0.00021686787 
   40700   -1726349.6 0.0029743621 0.0049073273 -0.016309704 0.0074072141  0.016454462 -0.00021168825 
   40800   -1726349.6 0.0029699654 0.0048887426 -0.016296448  0.007400005  0.016436281 -0.00020628044 
   40900   -1726349.6 0.0029657566 0.0048709659  -0.01628373 0.0073931059  0.016418846 -0.00020110099 
   41000   -1726349.6 0.0029615432 0.0048531806 -0.016270967 0.0073861998   0.01640136 -0.00019591227 
   41100   -1726349.6 0.0029571343 0.0048345835 -0.016257582 0.0073789747  0.016383029 -0.00019047946 
   41200   -1726349.6 0.0029530483 0.0048173619  -0.01624515 0.0073722806  0.016366012 -0.00018544191 
   41300   -1726349.6 0.0029488101 0.0047995105 -0.016232225 0.0073653381   0.01634833 -0.00018021329 
   41400   -1726349.6 0.0029444712 0.0047812501 -0.016218963  0.007358233  0.016330196 -0.00017485773 
   41500   -1726349.6 0.0029404138  0.004764186 -0.016206534 0.0073515899  0.016313208 -0.00016984638 
   41600   -1726349.6 0.0029361671 0.0047463396 -0.016193496 0.0073446388  0.016295397 -0.00016459839 
   41700   -1726349.6 0.0029319529 0.0047286443  -0.01618053 0.0073377431  0.016277693 -0.00015938793 
   41800   -1726349.6 0.0029278668 0.0047114998 -0.016167931 0.0073310588  0.016260497 -0.00015433293 
   41900   -1726349.6 0.0029235788 0.0046935223  -0.01615468 0.0073240461  0.016242421 -0.00014902518 
   42000   -1726349.6 0.0029195454 0.0046766273  -0.01614219 0.0073174526   0.01622539 -0.00014403043 
   42100   -1726349.6 0.0029153709 0.0046591543 -0.016129235 0.0073106301  0.016207733 -0.00013885788 
   42200   -1726349.6 0.0029112458  0.004641904 -0.016116407 0.0073038913  0.016190258 -0.00013374447 
   42300   -1726349.6 0.0029071658 0.0046248553 -0.016103692 0.0072972281  0.016172944 -0.00012868399 
   42400   -1726349.6 0.0029029383 0.0046072069  -0.01609049 0.0072903272  0.016154976 -0.00012343845 
   42500   -1726349.6 0.0028989699 0.0045906535 -0.016078071 0.0072838513   0.01613808 -0.00011851168 
   42600   -1726349.6 0.0028947807 0.0045731943 -0.016064935 0.0072770178  0.016120216 -0.00011330829 
   42700   -1726349.6 0.0028907615 0.0045564598 -0.016052306 0.0072704649   0.01610305 -0.00010831422 
   42800   -1726349.6 0.0028867076 0.0045395953 -0.016039543  0.007263858  0.016085708 -0.0001032745 
   42900   -1726349.6 0.0028824847 0.0045220439  -0.01602622 0.0072569788  0.016067614 -9.8022245e-05 
   43000   -1726349.6 0.0028785691  0.004505786 -0.016013843 0.0072506036  0.016050811 -9.3150507e-05 
   43100   -1726349.6  0.002874523 0.0044890006 -0.016001028 0.0072440186  0.016033421 -8.811389e-05 
   43200   -1726349.6 0.0028703263 0.0044716075 -0.015987709  0.007237192  0.016015354 -8.2887633e-05 
   43300   -1726349.6 0.0028664144 0.0044554116 -0.015975271 0.0072308324   0.01599849 -7.8014472e-05 
   43400   -1726349.6 0.0028624273 0.0044389193 -0.015962569 0.0072243535  0.015981273 -7.3045361e-05 
   43500   -1726349.6 0.0028583177  0.004421937 -0.015949451 0.0072176791  0.015963501 -6.7921503e-05 
   43600   -1726349.6 0.0028542847 0.0044052891 -0.015936553 0.0072111333  0.015946035 -6.2891593e-05 
   43700   -1726349.6  0.002850384 0.0043892025 -0.015924055 0.0072048052  0.015929115 -5.8024532e-05 
   43800   -1726349.6 0.0028463758 0.0043726892 -0.015911188 0.0071983066  0.015911703 -5.3021513e-05 
   43900   -1726349.6 0.0028422639 0.0043557668 -0.015897963 0.0071916439  0.015893814 -4.7887287e-05 
   44000   -1726349.6 0.0028383075 0.0043395028 -0.015885216 0.0071852377  0.015876578 -4.2945941e-05 
   44100   -1726349.6 0.0028344479 0.0043236519 -0.015872757 0.0071789916  0.015859737 -3.8123404e-05 
   44200   -1726349.6 0.0028304621    0.0043073 -0.015859868 0.0071725452  0.015842321 -3.3141545e-05 
   44300   -1726349.6 0.0028264109 0.0042906991 -0.015846743  0.007165998  0.015824595 -2.8076686e-05 
   44400   -1726349.6 0.0028226135 0.0042751539 -0.015834419 0.0071598644  0.015807954 -2.3327237e-05 
   44500   -1726349.6 0.0028186328 0.0042588761 -0.015821476 0.0071534391  0.015790485 -1.8347064e-05 
   44600   -1726349.6 0.0028147224 0.0042429049 -0.015808741 0.0071471323  0.015773303 -1.3453804e-05 
   44700   -1726349.6 0.0028108684 0.0042271803 -0.015796166 0.0071409202  0.015756343 -8.6293082e-06 
   44800   -1726349.6 0.0028068655 0.0042108675 -0.015783083 0.0071344732  0.015738704 -3.6172791e-06 
   44900   -1726349.6 0.0028031198 0.0041956199  -0.01577082 0.0071284446  0.015722176 1.0741051e-06 
   45000   -1726349.6 0.0027991622 0.0041795273 -0.015757841 0.0071220794  0.015704688 6.0324383e-06 
   45100   -1726349.6 0.0027953222 0.0041639329 -0.015745227 0.0071159089    0.0156877 1.0844059e-05 
   45200   -1726349.6 0.0027914018 0.0041480291 -0.015732326 0.0071096133   0.01567033 1.5758199e-05 
   45300   -1726349.6 0.0027873968  0.004131803 -0.015719125 0.0071031877  0.015652562 2.0779201e-05 
   45400   -1726349.6 0.0027835845 0.0041163755 -0.015706537 0.0070970757  0.015635625 2.5560105e-05 
   45500   -1726349.6 0.0027795915 0.0041002362  -0.01569333 0.0070906792  0.015617862 3.0568843e-05 
   45600   -1726349.6 0.0027757114 0.0040845739 -0.015680477 0.0070844695   0.01560058 3.5436576e-05 
   45700   -1726349.6 0.0027718818 0.0040691337 -0.015667769 0.0070783453  0.015583499 4.024234e-05 
   45800   -1726349.6 0.0027678764 0.0040530049 -0.015654455 0.0070719455   0.01556561 4.526982e-05 
   45900   -1726349.6 0.0027641229  0.004037911  -0.01564196 0.0070659542  0.015548826 4.9981567e-05 
   46000   -1726349.6 0.0027602402 0.0040223158 -0.015629013 0.0070597614   0.01553144 5.4856927e-05 
   46100   -1726349.6 0.0027563595 0.0040067498 -0.015616053 0.0070535779  0.015514043 5.9730307e-05 
   46200   -1726349.6 0.0027525909 0.0039916522 -0.015603447 0.0070475783  0.015497125 6.4464004e-05 
   46300   -1726349.6 0.0027486302 0.0039758058 -0.015590177 0.0070412787  0.015479323 6.9439872e-05 
   46400   -1726349.6 0.0027449437 0.0039610768 -0.015577808 0.0070354212  0.015462734 7.4071634e-05 
   46500   -1726349.6 0.0027410709 0.0039456226 -0.015564793 0.0070292731  0.015445284 7.8938627e-05 
   46600   -1726349.6 0.0027373178 0.0039306671 -0.015552161 0.0070233213  0.015428354 8.3655513e-05 
   46700   -1726349.6 0.0027335167 0.0039155397 -0.015539348 0.0070172988  0.015411185 8.8433706e-05 
   46800   -1726349.6 0.0027297372 0.0039005194 -0.015526589  0.007011317  0.015394095 9.3185053e-05 
   46900   -1726349.6 0.0027259839 0.0038856224 -0.015513899 0.0070053821  0.015377101 9.7904441e-05 
   47000   -1726349.6 0.0027221938  0.003870601 -0.015501066 0.0069993956  0.015359922 0.00010267029 
   47100   -1726349.6 0.0027184806  0.003855904 -0.015488475 0.0069935363  0.015343071 0.00010734022 
   47200   -1726349.6 0.0027146884  0.003840916 -0.015475598 0.0069875591  0.015325842 0.00011210968 
   47300   -1726349.6 0.0027110103 0.0038263981 -0.015463089 0.0069817673   0.01530911 0.00011673647 
   47400   -1726349.6 0.0027072174 0.0038114493 -0.015450173 0.0069758016  0.015291839 0.00012150771 
   47500   -1726349.6 0.0027035746 0.0037971115 -0.015437749 0.0069700779   0.01527523 0.00012609086 
   47600   -1726349.6 0.0026997673 0.0037821486 -0.015424747 0.0069641027  0.015257854 0.00013088095 
   47700   -1726349.6 0.0026961683 0.0037680238 -0.015412438 0.0069584602  0.015241408 0.00013540962 
   47800   -1726349.6 0.0026923512 0.0037530652 -0.015399365 0.0069524829  0.015223947 0.00014021283 
   47900   -1726349.6 0.0026887903  0.003739131 -0.015387153 0.0069469131  0.015207641 0.00014469386 
   48000   -1726349.6 0.0026850267 0.0037244244 -0.015374228 0.0069410326  0.015190386 0.00014943044 
   48100   -1726349.6  0.002681419 0.0037103488 -0.015361823 0.0069354028   0.01517383 0.00015397062 
   48200   -1726349.6 0.0026777489   0.00369605 -0.015349185 0.0069296818  0.015156968 0.00015858983 
   48300   -1726349.6 0.0026740329 0.0036815949 -0.015336373 0.0069238967  0.015139878 0.00016326662 
   48400   -1726349.6 0.0026704694 0.0036677528  -0.01532407 0.0069183551  0.015123471 0.00016775193 
   48500   -1726349.6 0.0026667241 0.0036532264 -0.015311122 0.0069125378  0.015106208 0.00017246623 
   48600   -1726349.6 0.0026631632 0.0036394377 -0.015298797 0.0069070144  0.015089781 0.00017694789 
   48700   -1726349.6 0.0026595498 0.0036254655 -0.015286272 0.0069014157  0.015073092 0.00018149616 
   48800   -1726349.6 0.0026557928 0.0036109607 -0.015273233 0.0068956019  0.015055722 0.00018622518 
   48900   -1726349.6 0.0026522833 0.0035974337 -0.015261039 0.0068901786  0.015039481 0.00019064213 
   49000   -1726349.6 0.0026487046 0.0035836601 -0.015248588 0.0068846548  0.015022903 0.00019514652 
   49100   -1726349.6 0.0026449971 0.0035694131 -0.015235672 0.0068789394   0.01500571  0.000199813 
   49200   -1726349.6  0.002641458 0.0035558358 -0.015223329 0.0068734914  0.014989283 0.00020426697 
   49300   -1726349.6 0.0026379256 0.0035423041 -0.015210993   0.00686806   0.01497287 0.00020871284 
   49400   -1726349.6 0.0026342557 0.0035282686 -0.015198161 0.0068624249  0.014955801 0.00021333145 
   49500   -1726349.6 0.0026307519 0.0035148904 -0.015185896 0.0068570523  0.014939491 0.00021774055 
   49600   -1726349.6  0.002627217 0.0035014142 -0.015173507 0.0068516389  0.014923019 0.00022218883 
   49700   -1726349.6 0.0026235396 0.0034874179 -0.015160603 0.0068460151  0.014905867 0.0002268161 
   49800   -1726349.6 0.0026201274  0.003474452 -0.015148616  0.006840804  0.014889937 0.00023110938 
   49900   -1726349.6 0.0026165587 0.0034609127 -0.015136063  0.006835361   0.01487326 0.00023559949 
   50000   -1726349.6 0.0026130196 0.0034475087 -0.015123602 0.0068299711  0.014856708 0.00024005166 
   50100   -1726349.6 0.0026095544 0.0034344053 -0.015111385 0.0068247007  0.014840485 0.00024441085 
   50200   -1726349.6 0.0026059297 0.0034207215 -0.015098592 0.0068191955    0.0148235 0.00024897034 
   50300   -1726349.6 0.0026025123 0.0034078428 -0.015086518 0.0068140131  0.014807473 0.00025326824 
   50400   -1726349.6 0.0025990218 0.0033947093  -0.01507417 0.0068087267  0.014791088 0.0002576581 
   50500   -1726349.6 0.0025954031  0.003381117 -0.015061355 0.0068032545  0.014774086 0.00026220854 
   50600   -1726349.6 0.0025920278 0.0033684608  -0.01504939 0.0067981579  0.014758215 0.00026645233 
   50700   -1726349.6  0.002588553 0.0033554523 -0.015037057 0.0067929183   0.01474186 0.00027082108 
   50800   -1726349.6 0.0025849633 0.0033420376 -0.015024303 0.0067875138  0.014724951 0.00027533346 
   50900   -1726349.6 0.0025816105 0.0033295295 -0.015012378 0.0067824735  0.014709144 0.00027954759 
   51000   -1726349.6 0.0025781509 0.0033166443  -0.01500006   0.00677728  0.014692819 0.00028389562 
   51100   -1726349.6 0.0025745783 0.0033033622 -0.014987326 0.0067719254  0.014675948 0.00028838479 
   51200   -1726349.6 0.0025712603 0.0032910477 -0.014975487 0.0067669598  0.014660265 0.00029255364 
   51300   -1726349.6 0.0025677987 0.0032782219 -0.014963122  0.006761787   0.01464389 0.00029690242 
   51400   -1726349.6 0.0025642618 0.0032651415 -0.014950477 0.0067565105  0.014627147 0.00030134468 
   51500   -1726349.6 0.0025609491 0.0032529108 -0.014938619 0.0067515756   0.01461145 0.00030550513 
   51600   -1726349.6 0.0025575304 0.0032403107  -0.01492637 0.0067464907  0.014595239 0.00030979802 
   51700   -1726349.6 0.0025539989 0.0032273183 -0.014913704 0.0067412465  0.014578479 0.00031423181 
   51800   -1726349.6 0.0025506726 0.0032151037 -0.014901763 0.0067363153  0.014562683 0.00031840687 
   51900   -1726349.6 0.0025473134 0.0032027891 -0.014889692 0.0067313427  0.014546716 0.0003226229 
   52000   -1726349.6  0.002543852 0.0031901224  -0.01487724  0.006726227   0.01453025 0.00032696651 
   52100   -1726349.6 0.0025404413 0.0031776651  -0.01486496 0.0067211951  0.014514015 0.00033124526 
   52200   -1726349.6 0.0025371481 0.0031656576  -0.01485309 0.0067163438  0.014498326 0.00033537626 
   52300   -1726349.6  0.002533725 0.0031531989  -0.01484074 0.0067113094  0.014482005 0.00033966943 
   52400   -1726349.6 0.0025303299 0.0031408658 -0.014828481  0.006706325  0.014465807 0.00034392623 
   52500   -1726349.6 0.0025270497 0.0031289709 -0.014816624 0.0067015167  0.014450145 0.00034803853 
   52600   -1726349.6 0.0025236448 0.0031166463 -0.014804305 0.0066965339  0.014433875 0.00035230632 
   52700   -1726349.6 0.0025202931 0.0031045377 -0.014792168 0.0066916378  0.014417849 0.00035650619 
   52800   -1726349.6 0.0025170179 0.0030927263 -0.014780296 0.0066868609  0.014402177 0.0003606097 
   52900   -1726349.6 0.0025135896  0.003080386 -0.014767858 0.0066818694   0.01438576 0.00036490405 
   53000   -1726349.6 0.0025103242 0.0030686547 -0.014756001 0.0066771236  0.014370113 0.0003689931 
   53100   -1726349.6  0.002507032 0.0030568482 -0.014744035 0.0066723466  0.014354326 0.00037311516 
   53200   -1726349.6 0.0025036186 0.0030446301 -0.014731617 0.0066674023  0.014337946 0.00037738805 
   53300   -1726349.6 0.0025003451 0.0030329359 -0.014719699 0.0066626695  0.014322228 0.00038148445 
   53400   -1726349.6 0.0024970996 0.0030213624 -0.014707871 0.0066579847  0.014306632 0.00038554532 
   53500   -1726349.6 0.0024937177 0.0030093255 -0.014695535 0.0066531117   0.01429037 0.00038977582 
   53600   -1726349.6 0.0024903737 0.0029974478 -0.014683328 0.0066483026  0.014274281 0.00039395735 
   53700   -1726349.6 0.0024871814 0.0029861297 -0.014671663 0.0066437194   0.01425891 0.00039794856 
   53800   -1726349.6 0.0024839213 0.0029745926 -0.014659741 0.0066390469  0.014243203 0.00040202366 
   53900   -1726349.6 0.0024805686 0.0029627511  -0.01464747 0.0066342506  0.014227038 0.00040621337 
   54000   -1726349.6 0.0024772073 0.0029509032 -0.014635157 0.0066294511  0.014210823 0.00041041251 
   54100   -1726349.6 0.0024740603 0.0029398325  -0.01462362 0.0066249659  0.014195632 0.00041434273 
   54200   -1726349.6 0.0024708231 0.0029284652 -0.014611742 0.0066203601  0.014179995 0.00041838493 
   54300   -1726349.6  0.002467505 0.0029168369 -0.014599557  0.006615648  0.014163957 0.00042252695 
   54400   -1726349.6  0.002464259 0.0029054846 -0.014587627 0.0066110472  0.014148259 0.0004265775 
   54500   -1726349.6 0.0024610913 0.0028944271 -0.014575976 0.0066065655   0.01413293 0.00043052952 
   54600   -1726349.6 0.0024577948 0.0028829423 -0.014563841 0.0066019101  0.014116967 0.00043464119 
   54700   -1726349.6 0.0024545675 0.0028717223 -0.014551952 0.0065973616  0.014101331 0.00043866487 
   54800   -1726349.6 0.0024514145 0.0028607812 -0.014540328 0.0065929258  0.014086046 0.00044259517 
   54900   -1726349.6 0.0024481305  0.002849408  -0.01452821 0.0065883144  0.014070115 0.00044668764 
   55000   -1726349.6 0.0024449624 0.0028384593 -0.014516512 0.0065838747   0.01405474 0.00045063404 
   55100   -1726349.6 0.0024417865 0.0028275043 -0.014504775 0.0065794321  0.014039316 0.00045458943 
   55200   -1726349.6  0.002438521 0.0028162639   -0.0144927 0.0065748735  0.014023449 0.00045865476 
   55300   -1726349.6 0.0024354226 0.0028056193 -0.014481232 0.0065705561  0.014008384 0.00046251126 
   55400   -1726349.6 0.0024321471 0.0027943893   -0.0144691 0.0065660009   0.01399245 0.0004665868 
   55500   -1726349.6 0.0024290716 0.0027838666 -0.014457701 0.0065617325  0.013977482 0.00047041209 
   55600   -1726349.6 0.0024258278 0.0027727902 -0.014445669  0.006557239  0.013961684 0.00047444567 
   55700   -1726349.6 0.0024227451 0.0027622858 -0.014434226 0.0065529775  0.013946665 0.0004782774 
   55800   -1726349.6 0.0024195145 0.0027512993 -0.014422226   0.00654852  0.013930915 0.00048229196 
   55900   -1726349.6 0.0024164465 0.0027408875 -0.014410822 0.0065442955  0.013915951 0.00048610299 
   56000   -1726349.6 0.0024132251 0.0027299771 -0.014398838 0.0065398684  0.013900229 0.00049010349 
   56100   -1726349.6 0.0024101603 0.0027196193  -0.01438743 0.0065356655  0.013885265 0.00049390787 
   56200   -1726349.6 0.0024069675   0.00270885 -0.014375536 0.0065312953  0.013869667 0.00049787026 
   56300   -1726349.6 0.0024038884 0.0026984869 -0.014364059 0.0065270899  0.013854619 0.00050168975 
   56400   -1726349.6 0.0024007365 0.0026878999 -0.014352301 0.0065227933  0.013839205 0.00050559859 
   56500   -1726349.6 0.0023976195 0.0026774527 -0.014340667 0.0065185535  0.013823956 0.00050946247 
   56600   -1726349.6 0.0023945313 0.0026671226 -0.014329131 0.0065143609  0.013808839 0.00051328973 
   56700   -1726349.6 0.0023913063 0.0026563584 -0.014317076 0.0065099921  0.013793045 0.00051728489 
   56800   -1726349.6 0.0023883055 0.0026463639 -0.014305853 0.0065059357  0.013778343 0.0005210008 
   56900   -1726349.6 0.0023851784 0.0026359697 -0.014294148 0.0065017169  0.013763013 0.00052487207 
   57000   -1726349.6 0.0023820317 0.0026255337 -0.014282364 0.0064974811  0.013747582 0.00052876574 
   57100   -1726349.6 0.0023790173 0.0026155568 -0.014271066 0.0064934316  0.013732791 0.00053249472 
   57200   -1726349.6 0.0023758473 0.0026050873 -0.014259178 0.0064891821   0.01371723 0.0005364147 
   57300   -1726349.6 0.0023728394  0.002595175 -0.014247892 0.0064851589  0.013702459 0.00054013251 
   57400   -1726349.6 0.0023697425 0.0025849904 -0.014236263  0.006481025  0.013687243 0.00054395925 
   57500   -1726349.6 0.0023666631 0.0025748857 -0.014224694 0.0064769237  0.013672107 0.00054776259 
   57600   -1726349.6 0.0023636301 0.0025649538  -0.01421329 0.0064728924  0.013657192 0.00055150763 
   57700   -1726349.6 0.0023604822 0.0025546691 -0.014201449 0.0064687181  0.013641706 0.00055539252 
   57800   -1726349.6 0.0023575179 0.0025450042  -0.01419029 0.0064647954  0.013627116 0.00055904985 
   57900   -1726349.6 0.0023544123 0.0025349005 -0.014178592 0.0064606946  0.013611824   0.00056288 
   58000   -1726349.6 0.0023513599 0.0025249924 -0.014167089 0.0064566734  0.013596789 0.00056664268 
   58100   -1726349.6 0.0023483657 0.0025152937 -0.014155798 0.0064527372  0.013582033 0.00057033247 
   58200   -1726349.6 0.0023452288 0.0025051549 -0.014143961 0.0064486225  0.013566568 0.00057419661 
   58300   -1726349.6 0.0023422789 0.0024956423 -0.014132824 0.0064447622   0.01355202 0.00057782853 
   58400   -1726349.6 0.0023392373 0.0024858544 -0.014121333 0.0064407902  0.013537012 0.00058157233 
   58500   -1726349.6 0.0023361546  0.002475957 -0.014109682  0.006436774  0.013521797 0.00058536475 
   58600   -1726349.6 0.0023332133 0.0024665336 -0.014098557 0.0064329503  0.013507273 0.00058898218 
   58700   -1726349.6 0.0023301358 0.0024566957  -0.01408691 0.0064289585   0.01349207 0.00059276548 
   58800   -1726349.6 0.0023271336 0.0024471209 -0.014075544 0.0064250739  0.013477236 0.00059645422 
   58900   -1726349.6 0.0023241727 0.0024376976 -0.014064326 0.0064212508  0.013462598 0.00060009117 
   59000   -1726349.6 0.0023210931 0.0024279185 -0.014052651 0.0064172836  0.013447368 0.00060387238 
   59100   -1726349.6 0.0023181346  0.002418546 -0.014041432 0.0064134817  0.013432733 0.00060750285 
   59200   -1726349.6  0.002315169 0.0024091708 -0.014030177 0.0064096789  0.013418055 0.00061114108 
   59300   -1726349.6 0.0023120846  0.002399443 -0.014018466 0.0064057334  0.013402786 0.00061492295 
   59400   -1726349.6 0.0023092033 0.0023903756  -0.01400752  0.006402056  0.013388517 0.00061845458 
   59500   -1726349.6 0.0023061849 0.0023808979 -0.013996047 0.0063982125  0.013373562 0.00062215273 
   59600   -1726349.6 0.0023031927 0.0023715244 -0.013984668 0.0063944117  0.013358734 0.00062581686 
   59700   -1726349.6 0.0023002804 0.0023624213 -0.013973587 0.0063907207  0.013344296 0.00062938187 
   59800   -1726349.6 0.0022972467   0.00235296 -0.013962037 0.0063868849   0.01332925 0.00063309397 
   59900   -1726349.6 0.0022943173 0.0023438457 -0.013950879 0.0063831902  0.013314719 0.00063667645 
   60000   -1726349.6 0.0022913884  0.002334753 -0.013939717 0.0063795045  0.013300183 0.00064025709 
   60100   -1726349.6   0.00228833 0.0023252801 -0.013928056 0.0063756651     0.013285 0.00064399441 
   60200   -1726349.6 0.0022854753  0.002316459 -0.013917166 0.0063720904  0.013270825 0.00064748092 
   60300   -1726349.6 0.0022825334 0.0023073884 -0.013905937 0.0063684149  0.013256212 0.00065107267 
   60400   -1726349.6 0.0022795108 0.0022980909 -0.013894395 0.0063646479  0.013241193 0.00065476122 
   60500   -1726349.6  0.002276605  0.002289174 -0.013883294 0.0063610356  0.013226751 0.00065830529 
   60600   -1726349.6  0.002273716 0.0022803281  -0.01387225 0.0063574525  0.013212386 0.00066182771 
   60700   -1726349.6 0.0022707138 0.0022711571 -0.013860769 0.0063537381  0.013197455 0.00066548639 
   60800   -1726349.6 0.0022678287  0.002262365 -0.013849731 0.0063501778  0.013183103 0.00066900047 
   60900   -1726349.6 0.0022649405 0.0022535829 -0.013838674 0.0063466219  0.013168729 0.00067251708 
   61000   -1726349.6 0.0022619362 0.0022444695 -0.013827168 0.0063429324  0.013153774 0.0006761733 
   61100   -1726349.6 0.0022590646   0.00223578 -0.013816167 0.0063394151  0.013139478 0.00067966594 
   61200   -1726349.6 0.0022562034 0.0022271409 -0.013805198 0.0063359187  0.013125227 0.00068314483 
   61300   -1726349.6 0.0022532108 0.0022181265 -0.013793721 0.0063322709  0.013110317 0.00068678176 
   61400   -1726349.6  0.002250403 0.0022096892 -0.013782948 0.0063288573  0.013096326 0.00069019217 
   61500   -1726349.6 0.0022474856 0.0022009426 -0.013771749  0.006325319  0.013081784 0.00069373431 
   61600   -1726349.6 0.0022445943 0.0021922953 -0.013760646 0.0063218216  0.013067369 0.00069724278 
   61700   -1726349.6 0.0022417472 0.0021837994 -0.013749707 0.0063183859  0.013053169 0.00070069641 
   61800   -1726349.6 0.0022387852 0.0021749822 -0.013738321 0.0063148209  0.013038394 0.00070428743 
   61900   -1726349.6 0.0022360034  0.002166721 -0.013727624 0.0063114813  0.013024514 0.00070765844 
   62000   -1726349.6 0.0022330746 0.0021580433 -0.013716356  0.006307974  0.013009895 0.00071120612 
   62100   -1726349.6 0.0022302363 0.0021496549 -0.013705433 0.0063045843  0.012995727 0.00071464198 
   62200   -1726349.6 0.0022273967 0.0021412815 -0.013694498 0.0063012012  0.012981548 0.00071807826 
   62300   -1726349.6 0.0022244368 0.0021325746 -0.013683096 0.0062976841  0.012966764 0.00072165833 
   62400   -1726349.6 0.0022216633 0.0021244365 -0.013672408 0.0062943975  0.012952909 0.00072501088 
   62500   -1726349.6 0.0022188195 0.0021161108 -0.013661443 0.0062910358  0.012938698 0.00072844723 
   62600   -1726349.6 0.0022158699 0.0021074969 -0.013650067 0.0062875584  0.012923956 0.00073200949 
   62700   -1726349.6 0.0022131125 0.0020994644 -0.013639428 0.0062843165  0.012910173 0.00073533763 
   62800   -1726349.6 0.0022102783 0.0020912268 -0.013628487 0.0062809925  0.012896001 0.00073875734 
   62900   -1726349.6 0.0022073397  0.002082707 -0.013617138 0.0062775553  0.012881304 0.00074230112 
   63000   -1726349.6 0.0022045836 0.0020747364 -0.013606491 0.0062743406  0.012867518 0.0007456228 
   63100   -1726349.6 0.0022017729 0.0020666263 -0.013595628 0.0062710703  0.012853454 0.00074900911 
   63200   -1726349.6 0.0021988627 0.0020582503 -0.013584375 0.0062676935   0.01283889 0.00075251334 
   63300   -1726349.6 0.0021960825 0.0020502684 -0.013573622 0.0062644765  0.012824975 0.00075585911 
   63400   -1726349.6 0.0021933048 0.0020423126 -0.013562874 0.0062612707  0.012811068 0.00075920048 
   63500   -1726349.6 0.0021904008 0.0020340154 -0.013551632 0.0062579282  0.012796527 0.00076269205 
   63600   -1726349.6 0.0021876615 0.0020262083 -0.013541025  0.006254784  0.012782808 0.0007659837 
   63700   -1726349.6  0.002184868 0.0020182657 -0.013530203  0.006251586  0.012768814 0.00076933904 
   63800   -1726349.6 0.0021819698 0.0020100464 -0.013518971 0.0062482774  0.012754294 0.00077281814 
   63900   -1726349.6 0.0021792716 0.0020024131 -0.013508511 0.0062452056  0.012740773 0.00077605549 
   64000   -1726349.6  0.002176451 0.0019944525 -0.013497572  0.006242003  0.012726636 0.00077943825 
   64100   -1726349.6 0.0021736665 0.0019866139 -0.013486769 0.0062388503  0.012712679 0.00078277564 
   64200   -1726349.6 0.0021709102 0.0019788733 -0.013476071 0.0062357379  0.012698859 0.00078607789 
   64300   -1726349.6 0.0021680615 0.0019708938 -0.013465012 0.0062325304  0.012684575 0.00078948868 
   64400   -1726349.6 0.0021653657 0.0019633607 -0.013454541 0.0062295032  0.012671054 0.00079271504 
   64500   -1726349.6 0.0021625165 0.0019554187  -0.01344347 0.0062263125  0.012656761 0.00079612331 
   64600   -1726349.6  0.002159829 0.0019479467 -0.013433025 0.0062233117  0.012643279 0.00079933614 
   64700   -1726349.6  0.002157008 0.0019401224 -0.013422057 0.0062201703  0.012629124 0.00080270714 
   64800   -1726349.6  0.002154313 0.0019326667 -0.013411575 0.0062171779    0.0126156 0.00080592561 
   64900   -1726349.6 0.0021515061 0.0019249203 -0.013400654 0.0062140697   0.01260151 0.00080927633 
   65000   -1726349.6 0.0021488169 0.0019175177 -0.013390188 0.0062111005  0.012588011 0.00081248455 
   65100   -1726349.6  0.002146025 0.0019098518 -0.013379318 0.0062080266  0.012573995 0.00081581355 
   65200   -1726349.6 0.0021433234 0.0019024517 -0.013368796 0.0062050603  0.012560428 0.00081903356 
   65300   -1726349.6 0.0021406133 0.0018950472 -0.013358237 0.0062020932  0.012546818 0.00082226179 
   65400   -1726349.6 0.0021378875 0.0018876187 -0.013347614 0.0061991175  0.012533127 0.00082550696 
   65500   -1726349.6 0.0021351276 0.0018801161 -0.013336854 0.0061961132  0.012519264  0.000828791 
   65600   -1726349.6 0.0021324272 0.0018727937 -0.013326323  0.006193182  0.012505696 0.00083200275 
   65700   -1726349.6 0.0021297268 0.0018654899 -0.013315789 0.0061902594  0.012492128 0.00083521256 
   65800   -1726349.6 0.0021269539 0.0018580087 -0.013304967 0.0061872668  0.012478193 0.00083850705 
   65900   -1726349.6 0.0021243002 0.0018508679 -0.013294609 0.0061844114  0.012464857 0.0008416579 
   66000   -1726349.6 0.0021215279 0.0018434269 -0.013283784 0.0061814372  0.012450923 0.00084494784 
   66100   -1726349.6 0.0021188717 0.0018363151 -0.013273408 0.0061785955   0.01243757 0.00084809865 
   66200   -1726349.6  0.002116164 0.0018290841 -0.013262829 0.0061757074  0.012423957 0.00085130858 
   66300   -1726349.6 0.0021134263 0.0018217916 -0.013252128 0.0061727957  0.012410191 0.00085455255 
   66400   -1726349.6 0.0021107825 0.0018147676 -0.013241792 0.0061699924  0.012396898 0.00085768328 
   66500   -1726349.6 0.0021080186 0.0018074434 -0.013230984 0.0061670705  0.012382998 0.00086095447 
   66600   -1726349.6 0.0021053933 0.0018005038 -0.013220713  0.006164303  0.012369794 0.00086406027 
   66700   -1726349.6 0.0021026557 0.0017932865 -0.013210001 0.0061614261  0.012356024 0.0008672968 
   66800   -1726349.6 0.0021000121 0.0017863344 -0.013199652 0.0061586559  0.012342725 0.00087042092 
   66900   -1726349.6 0.0020972818 0.0017791736 -0.013188962 0.0061558038   0.01232899 0.00087364527 
   67000   -1726349.6 0.0020946472 0.0017722809 -0.013178643 0.0061530596  0.012315733 0.00087675537 
   67100   -1726349.6 0.0020919087 0.0017651357 -0.013167915 0.0061502162  0.012301955 0.00087998589 
   67200   -1726349.6 0.0020892962 0.0017583364 -0.013157676 0.0061475116  0.012288807 0.00088306646 
   67300   -1726349.6  0.002086539 0.0017511795 -0.013146868  0.006144666  0.012274932 0.00088631565 
   67400   -1726349.6 0.0020839552 0.0017444901 -0.013136736 0.0061420074  0.012261927 0.00088935894 
   67500   -1726349.6 0.0020812088 0.0017373979 -0.013125964   0.00613919  0.012248102 0.00089259212 
   67600   -1726349.6 0.0020786255  0.001730745 -0.013115829 0.0061365485    0.0122351 0.00089563122 
   67700   -1726349.6 0.0020759021 0.0017237489 -0.013105141 0.0061337718  0.012221389 0.00089883382 
   67800   -1726349.6 0.0020733039 0.0017170926 -0.013094943 0.0061311313   0.01220831 0.00090188707 
   67900   -1726349.6 0.0020706111 0.0017102113 -0.013084369 0.0061284027  0.012194751 0.0009050502 
   68000   -1726349.6 0.0020679993 0.0017035551 -0.013074111 0.0061257648  0.012181601 0.00090811608 
   68100   -1726349.6 0.0020653232 0.0016967524 -0.013063597 0.0061230701  0.012168126 0.00091125608 
   68200   -1726349.6 0.0020627051 0.0016901153  -0.01305331 0.0061204423  0.012154943 0.00091432593 
   68300   -1726349.6 0.0020600486 0.0016833979 -0.013042867 0.0061177839  0.012141564 0.00091743952 
   68400   -1726349.6 0.0020574224 0.0016767754 -0.013032542 0.0061151645  0.012128339 0.00092051543 
   68500   -1726349.6 0.0020547822 0.0016701345 -0.013022158 0.0061125391  0.012115041 0.00092360649 
   68600   -1726349.6 0.0020521528  0.001663539 -0.013011816  0.006109933  0.012101799 0.00092668274 
   68700   -1726349.6 0.0020495256 0.0016569657 -0.013001477  0.006107337  0.012088565 0.00092975517 
   68800   -1726349.6 0.0020469004 0.0016504156 -0.012991146 0.0061047517  0.012075343 0.00093282309 
   68900   -1726349.6 0.0020442822 0.0016438998 -0.012980838 0.0061021811  0.012062153 0.00093588149 
   69000   -1726349.6 0.0020416574 0.0016373854 -0.012970503 0.0060996125  0.012048932 0.00093894559 
   69100   -1726349.6 0.0020390557 0.0016309453 -0.012960255 0.0060970746  0.012035825 0.00094198124 
   69200   -1726349.6 0.0020364107 0.0016244158 -0.012949836 0.0060945029  0.012022501 0.00094506546 
   69300   -1726349.6 0.0020338423  0.001618092 -0.012939714 0.0060920135  0.012009561 0.00094805892 
   69400   -1726349.6  0.002031151 0.0016114839 -0.012929107 0.0060894138  0.011996002 0.00095119361 
   69500   -1726349.6 0.0020286295 0.0016053091 -0.012919165 0.0060869859  0.011983298 0.00095412903 
   69600   -1726349.6 0.0020259688 0.0015988108 -0.012908673 0.0060844322  0.011969892 0.00095722482 
   69700   -1726349.6 0.0020234145 0.0015925896 -0.012898598 0.0060819889  0.011957023 0.00096019483 
   69800   -1726349.6 0.0020208096 0.0015862619 -0.012888321 0.0060795052  0.011943898 0.00096322222 
   69900   -1726349.6 0.0020181706 0.0015798691 -0.012877908 0.0060769975  0.011930602 0.00096628722 
   70000   -1726349.6 0.0020156433 0.0015737629 -0.012867932 0.0060746036  0.011917867 0.00096922118 
   70100   -1726349.6 0.0020130016 0.0015673976 -0.012857502 0.0060721096  0.011904556 0.00097228623 
   70200   -1726349.6 0.0020104744 0.0015613252 -0.012847523 0.0060697319  0.011891823 0.00097521644 
   70300   -1726349.6 0.0020078863  0.001555123 -0.012837301 0.0060673049  0.011878782 0.00097821564 
   70400   -1726349.6 0.0020052617 0.0015488502 -0.012826931 0.0060648517  0.011865556 0.00098125568 
   70500   -1726349.6 0.0020027702 0.0015429121 -0.012817086  0.006062531  0.011853003 0.00098413963 
   70600   -1726349.6 0.0020001111 0.0015365917 -0.012806577 0.0060600624  0.011839604 0.0009872159 
   70700   -1726349.6 0.0019976259 0.0015307007 -0.012796752  0.006057763  0.011827081 0.00099008941 
   70800   -1726349.6 0.0019950181 0.0015245357  -0.01278644 0.0060553581   0.01181394 0.0009931031 
   70900   -1726349.6 0.0019924242 0.0015184211 -0.012776182 0.0060529746  0.011800871 0.00099609855 
   71000   -1726349.6 0.0019898826 0.0015124458 -0.012766128 0.0060506469  0.011788065 0.0009990323 
   71100   -1726349.6 0.0019873166 0.0015064297 -0.012755975  0.006048305  0.011775135 0.0010019925 
   71200   -1726349.6 0.0019846811 0.0015002678 -0.012745545 0.0060459078  0.011761855 0.0010050311 
   71300   -1726349.6 0.0019820751 0.0014941928 -0.012735231 0.0060435463  0.011748726 0.0010080335 
   71400   -1726349.6 0.0019795641 0.0014883549 -0.012725289 0.0060412784  0.011736074 0.0010109252 
   71500   -1726349.6 0.0019770395 0.0014825014 -0.012715292  0.006039006  0.011723354 0.0010138309 
   71600   -1726349.6 0.0019744756 0.0014765729 -0.012705137 0.0060367062  0.011710435 0.0010167802 
   71700   -1726349.6 0.0019718443 0.0014705061 -0.012694712 0.0060343544  0.011697178 0.0010198052 
   71800   -1726349.6 0.0019693574 0.0014647884 -0.012684859 0.0060321397   0.01168465 0.0010226623 
   71900   -1726349.6 0.0019668359 0.0014590069 -0.012674866 0.0060299018  0.011671947 0.0010255577 
   72000   -1726349.6 0.0019642442 0.0014530808 -0.012664593 0.0060276096  0.011658889 0.0010285321 
   72100   -1726349.6 0.0019617036 0.0014472885 -0.012654521 0.0060253709  0.011646092 0.0010314457 
   72200   -1726349.6 0.0019592199 0.0014416413 -0.012644672 0.0060231899   0.01163358 0.0010342928 
   72300   -1726349.6 0.0019566591 0.0014358346 -0.012634515 0.0060209489  0.011620679 0.0010372267 
   72400   -1726349.6 0.0019540962 0.0014300405 -0.012624349 0.0060187147  0.011607771 0.0010401608 
   72500   -1726349.6 0.0019516362 0.0014244939 -0.012614589 0.0060165775   0.01159538 0.0010429758 
   72600   -1726349.6 0.0019490531  0.001418686 -0.012604337 0.0060143413  0.011582368 0.0010459301 
   72700   -1726349.6 0.0019465882 0.0014131599 -0.012594554 0.0060122154  0.011569955 0.0010487472 
   72800   -1726349.6 0.0019440643 0.0014075168 -0.012584534 0.0060100461  0.011557242 0.0010516304 
   72900   -1726349.6 0.0019415408 0.0014018911 -0.012574515 0.0060078854  0.011544534 0.0010545112 
   73000   -1726349.6  0.001939071    0.0013964 -0.012564706 0.0060057779  0.011532096 0.0010573294 
   73100   -1726349.6 0.0019364816 0.0013906595 -0.012554421 0.0060035766  0.011519056 0.0010602822 
   73200   -1726349.6 0.0019340489  0.001385282 -0.012544757 0.0060015163  0.011506807 0.0010630544 
   73300   -1726349.6 0.0019315493 0.0013797716 -0.012534825 0.0059994067  0.011494221 0.0010659016 
   73400   -1726349.6 0.0019289781 0.0013741199 -0.012524606 0.0059972449  0.011481275 0.0010688285 
   73500   -1726349.6 0.0019265121 0.0013687151 -0.012514805 0.0059951795  0.011468861 0.0010716337 
   73600   -1726349.6 0.0019240532 0.0013633405 -0.012505029 0.0059931272  0.011456481 0.0010744297 
   73700   -1726349.6  0.001921478 0.0013577281  -0.01249479  0.005990986  0.011443517  0.001077356 
   73800   -1726349.6 0.0019190733 0.0013525023 -0.012485227 0.0059889941  0.011431413 0.0010800868 
   73900   -1726349.6  0.001916576 0.0013470903 -0.012475294  0.005986933  0.011418843 0.0010829215 
   74000   -1726349.6 0.0019140555 0.0013416442 -0.012465268 0.0059848608  0.011406158 0.0010857804 
   74100   -1726349.6  0.001911636 0.0013364307  -0.01245564 0.0059828789   0.01139398 0.0010885235 
   74200   -1726349.6 0.0019090933 0.0013309674 -0.012445521 0.0059808038  0.011381183 0.0010914046 
   74300   -1726349.6 0.0019066709 0.0013257779  -0.01243588 0.0059788347  0.011368995 0.0010941475 
   74400   -1726349.6 0.0019042008  0.001320501 -0.012426047 0.0059768342  0.011356565  0.001096943 
   74500   -1726349.6 0.0019016727 0.0013151161 -0.012415982 0.0059747947  0.011343846 0.0010998023 
   74600   -1726349.6 0.0018992707 0.0013100142 -0.012406417 0.0059728642  0.011331761 0.0011025176 
   74700   -1726349.6 0.0018967964 0.0013047735 -0.012396562  0.005970883  0.011319313  0.001105313 
   74800   -1726349.6 0.0018942516 0.0012993998 -0.012386426 0.0059688536  0.011306513 0.0011081861 
   74900   -1726349.6 0.0018918752 0.0012943959 -0.012376958 0.0059669657   0.01129456 0.0011108677 
   75000   -1726349.6 0.0018894143 0.0012892288 -0.012367152  0.005965018  0.011282182 0.0011136431 
   75100   -1726349.6 0.0018868804 0.0012839238 -0.012357054 0.0059630204  0.011269438 0.0011164992 
   75200   -1726349.6 0.0018844666 0.0012788858 -0.012347434 0.0059611254  0.011257302 0.0011192178 
   75300   -1726349.6 0.0018820518 0.0012738594 -0.012337808 0.0059592364  0.011245159 0.0011219365 
   75400   -1726349.6 0.0018795594 0.0012686865  -0.01232787 0.0059572945  0.011232627 0.0011247409 
   75500   -1726349.6 0.0018770292 0.0012634514 -0.012317782 0.0059553313  0.011219908 0.0011275857 
   75600   -1726349.6 0.0018746621 0.0012585677 -0.012308341 0.0059535017  0.011208009 0.0011302458 
   75700   -1726349.6 0.0018722212  0.001253546 -0.012298605 0.0059516224  0.011195739 0.0011329874 
   75800   -1726349.6 0.0018697576 0.0012484926 -0.012288776 0.0059497332  0.011183357 0.0011357528 
   75900   -1726349.6 0.0018672393 0.0012433424 -0.012278728   0.00594781  0.011170701 0.0011385779 
   76000   -1726349.6 0.0018648799 0.0012385316 -0.012269314 0.0059460155  0.011158846 0.0011412229 
   76100   -1726349.6 0.0018624636 0.0012336186  -0.01225967 0.0059441847  0.011146705 0.0011439305 
   76200   -1726349.6 0.0018599661 0.0012285553   -0.0122497    0.0059423  0.011134156 0.0011467275 
   76300   -1726349.6  0.001857601 0.0012237751 -0.012240259 0.0059405227  0.011122276 0.0011493743 
   76400   -1726349.6 0.0018551842 0.0012189041 -0.012230609 0.0059387136  0.011110135 0.0011520777 
   76500   -1726349.6 0.0018526937 0.0012138999 -0.012220664 0.0059368573  0.011097628 0.0011548615 
   76600   -1726349.6 0.0018503557 0.0012092156 -0.012211326 0.0059351214  0.011085886 0.0011574737 
   76700   -1726349.6 0.0018479205 0.0012043505 -0.012201599 0.0059333207  0.011073656  0.001160193 
   76800   -1726349.6 0.0018454682 0.0011994666 -0.012191803 0.0059315152  0.011061345 0.0011629292 
[...]
  194500   -1726349.6 0.00011373553 0.00025323147 -0.0048890639 0.0063808491  0.002937495 0.0027311719 
  194600   -1726349.6 0.00011296547 0.00025340337 -0.0048853643 0.0063817453 0.0029339647 0.0027317035 
  194700   -1726349.6 0.00011220039 0.00025357431 -0.0048816876 0.0063826363 0.0029304568 0.0027322315 
  194800   -1726349.6 0.00011143157 0.0002537462 -0.0048779919 0.0063835323 0.0029269315 0.0027327617 
  194900   -1726349.6 0.0001106666 0.00025391728 -0.0048743138 0.0063844243 0.0029234237  0.002733289 
  195000   -1726349.6 0.00010990249 0.00025408837 -0.0048706387  0.006385316 0.0029199193 0.0027338155 
  195100   -1726349.6 0.00010913599 0.00025426006 -0.0048669511  0.006386211 0.0029164038 0.0027343434 
  195200   -1726349.6 0.00010837507 0.00025443063 -0.0048632894 0.0063871001 0.0029129136 0.0027348672 
  195300   -1726349.6 0.00010761128 0.00025460196 -0.0048596129 0.0063879932 0.0029094098 0.0027353927 
  195400   -1726349.6 0.00010684959 0.00025477288 -0.0048559456 0.0063888844 0.0029059157 0.0027359164 
  195500   -1726349.6 0.00010609021 0.00025494343 -0.0048522883 0.0063897734 0.0029024317 0.0027364384 
  195600   -1726349.6 0.00010532791 0.00025511473 -0.0048486161 0.0063906664  0.002898934  0.002736962 
  195700   -1726349.6 0.00010457071 0.00025528498 -0.0048449675 0.0063915541 0.0028954596 0.0027374819 
  195800   -1726349.6 0.00010381229 0.00025545569 -0.0048413117 0.0063924438 0.0028919789 0.0027380024 
  195900   -1726349.6 0.00010305302 0.00025562661 -0.004837651  0.006393335 0.0028884943 0.0027385232 
  196000   -1726349.6 0.00010229855 0.00025579659 -0.0048340125 0.0063942212 0.0028850315 0.0027390405 
  196100   -1726349.6 0.00010154161 0.00025596726 -0.0048303609 0.0063951109 0.0028815568 0.0027395592 
  196200   -1726349.6 0.00010078599 0.0002561377 -0.0048267148 0.0063959996  0.002878088 0.0027400767 
  196300   -1726349.6 0.00010003377 0.00025630749 -0.004823084 0.0063968848 0.0028746345 0.0027405917 
  196400   -1726349.6 9.9278721e-05 0.00025647804 -0.0048194386  0.006397774 0.0028711677 0.0027411083 
  196500   -1726349.6 9.8526563e-05 0.00025664799 -0.0048158063 0.0063986603  0.002867714 0.0027416227 
  196600   -1726349.6 9.7776389e-05 0.00025681766 -0.0048121823 0.0063995449 0.0028642689 0.0027421355 
  196700   -1726349.6 9.7023623e-05 0.00025698799 -0.004808545 0.0064004331 0.0028608118 0.0027426497 
  196800   -1726349.6  9.62747e-05 0.00025715749 -0.0048049255 0.0064013173 0.0028573722 0.0027431611 
  196900   -1726349.6 9.5525904e-05 0.00025732712 -0.0048013054 0.0064022019 0.0028539326 0.0027436721 
  197000   -1726349.6 9.4776655e-05 0.00025749696 -0.0047976821 0.0064030876 0.0028504908 0.0027441832 
  197100   -1726349.6 9.4029915e-05 0.00025766632 -0.0047940699 0.0064039709 0.0028470601 0.0027446923 
  197200   -1726349.6 9.3283432e-05 0.00025783572 -0.004790458 0.0064048545 0.0028436304  0.002745201 
  197300   -1726349.6 9.2537171e-05 0.00025800516 -0.0047868462 0.0064057384 0.0028402014 0.0027457093 
  197400   -1726349.6 9.1793095e-05 0.00025817423 -0.0047832438 0.0064066202 0.0028367821 0.0027462158 
  197500   -1726349.6 9.1048422e-05 0.00025834351 -0.0047796377 0.0064075034 0.0028333597 0.0027467225 
  197600   -1726349.6 9.0305359e-05 0.00025851252 -0.0047760384 0.0064083851 0.0028299446 0.0027472278 
  197700   -1726349.6 8.956331e-05 0.00025868144 -0.0047724427 0.0064092662 0.0028265335 0.0027477322 
  197800   -1726349.6 8.8821585e-05 0.00025885029 -0.0047688481 0.0064101475  0.002823124 0.0027482361 
  197900   -1726349.6 8.8081142e-05  0.000259019 -0.0047652584 0.0064110278 0.0028197198 0.0027487388 
  198000   -1726349.6 8.734165e-05 0.00025918753 -0.0047616726 0.0064119075 0.0028163201 0.0027492406 
  198100   -1726349.6 8.6601978e-05 0.00025935624 -0.0047580846  0.006412788 0.0028129188 0.0027497423 
  198200   -1726349.6 8.5864636e-05 0.00025952446 -0.0047545072 0.0064136662 0.0028095283 0.0027502422 
  198300   -1726349.6 8.5126641e-05 0.00025969298 -0.0047509253 0.0064145459 0.0028061341 0.0027507422 
  198400   -1726349.6 8.4389522e-05 0.00025986135 -0.004747347 0.0064154249  0.002802744 0.0027512414 
  198500   -1726349.6 8.3655217e-05 0.00026002923 -0.004743781 0.0064163012 0.0027993661 0.0027517385 
  198600   -1726349.6 8.2917184e-05 0.00026019798 -0.0047401962 0.0064171825 0.0027959711 0.0027522377 
  198700   -1726349.6 8.2185893e-05 0.0002603653 -0.0047366431 0.0064180562 0.0027926068 0.0027527322 
  198800   -1726349.6 8.1449776e-05 0.00026053381 -0.0047330656 0.0064189363   0.00278922 0.0027532296 
  198900   -1726349.6 8.0718806e-05 0.00026070117 -0.0047295123 0.0064198107 0.0027858567 0.0027537233 
  199000   -1726349.6 7.9986349e-05 0.00026086904 -0.0047259505 0.0064206875  0.002782486 0.0027542178 
  199100   -1726349.6 7.9253552e-05  0.000261037 -0.0047223863 0.0064215651 0.0027791137 0.0027547122 
  199200   -1726349.6 7.8526138e-05 0.00026120387 -0.004718847 0.0064224369 0.0027757656 0.0027552028 
  199300   -1726349.6 7.7791742e-05 0.00026137241 -0.0047152729 0.0064233176 0.0027723852 0.0027556978 
  199400   -1726349.6 7.7066199e-05 0.00026153895 -0.0047117411 0.0064241882 0.0027690454 0.0027561865 
  199500   -1726349.6 7.633851e-05 0.00026170614 -0.0047081976 0.0064250619 0.0027656952 0.0027566764 
  199600   -1726349.6 7.5606348e-05 0.00026187439 -0.0047046314 0.0064259415 0.0027623242 0.0027571691 
  199700   -1726349.6 7.4881909e-05 0.0002620409 -0.0047011021 0.0064268123 0.0027589887 0.0027576563 
  199800   -1726349.6 7.4158337e-05 0.00026220739 -0.0046975757 0.0064276826 0.0027556565 0.0027581427 
  199900   -1726349.6 7.3430633e-05 0.00026237493 -0.004694028 0.0064285585 0.0027523049 0.0027586316 
  200000   -1726349.6 7.2702117e-05 0.00026254265 -0.0046904756 0.0064294358 0.0027489495 0.0027591208 
  200100   -1726349.6 7.1981757e-05 0.00026270856 -0.0046869622 0.0064303038 0.0027456316 0.0027596042 
  200200   -1726349.6 7.1261001e-05 0.0002628747 -0.0046834456 0.0064311729 0.0027423112 0.0027600877 
  200300   -1726349.6 7.0536575e-05 0.00026304174 -0.0046799102 0.0064320469 0.0027389737 0.0027605733 
  200400   -1726349.6 6.9811207e-05 0.00026320905 -0.0046763694 0.0064329225 0.0027356317 0.0027610593 
  200500   -1726349.6 6.9093596e-05 0.00026337462 -0.0046728654 0.0064337892 0.0027323251 0.0027615398 
  200600   -1726349.6 6.8376267e-05 0.00026354029 -0.0046693616 0.0064346562 0.0027290194 0.0027620199 
  200700   -1726349.6 6.765573e-05 0.00026370675 -0.0046658412 0.0064355276 0.0027256986 0.0027625019 
  200800   -1726349.6 6.693341e-05 0.00026387368 -0.0046623112 0.0064364016 0.0027223693 0.0027629848 
  200900   -1726349.6 6.6218097e-05 0.00026403899 -0.0046588148 0.0064372676 0.0027190723 0.0027634627 
  201000   -1726349.6 6.5504357e-05 0.00026420408 -0.0046553248 0.0064381323  0.002715782 0.0027639394 
  201100   -1726349.6 6.4787392e-05 0.00026437002 -0.0046518179 0.0064390014 0.0027124765 0.0027644179 
  201200   -1726349.6 6.4068354e-05 0.00026453649 -0.0046482999 0.0064398735 0.0027091611 0.0027648976 
  201300   -1726349.6 6.3356341e-05 0.00026470133 -0.0046448157 0.0064407375 0.0027058781 0.0027653722 
  201400   -1726349.6 6.2645754e-05 0.00026486599 -0.0046413371 0.0064416004 0.0027026011 0.0027658458 
  201500   -1726349.6 6.1931448e-05 0.0002650316 -0.0046378393 0.0064424683 0.0026993065 0.0027663215 
  201600   -1726349.6 6.1215967e-05 0.00026519748 -0.004634335 0.0064433381 0.0026960065 0.0027667977 
  201700   -1726349.6 6.0508267e-05 0.0002653616 -0.004630868 0.0064441989 0.0026927422 0.0027672684 
  201800   -1726349.6 5.9799966e-05 0.00026552601 -0.0046273967  0.006445061 0.0026894745 0.0027677394 
  201900   -1726349.6 5.908815e-05 0.0002656913 -0.0046239072 0.0064459279 0.0026861903 0.0027682124 
  202000   -1726349.6 5.8376632e-05 0.00026585652 -0.0046204185 0.0064467949 0.0026829074 0.0027686849 
  202100   -1726349.6 5.767249e-05 0.00026602012 -0.0046169648 0.0064476534 0.0026796582 0.0027691522 
  202200   -1726349.6 5.6967101e-05 0.0002661841 -0.0046135039  0.006448514 0.0026764027 0.0027696202 
  202300   -1726349.6 5.6258487e-05 0.00026634892 -0.0046100261  0.006449379  0.002673132   0.00277009 
  202400   -1726349.6 5.5549257e-05 0.00026651389 -0.0046065446 0.0064502452 0.0026698584   0.00277056 
  202500   -1726349.6 5.4846709e-05 0.00026667732 -0.0046030951 0.0064511037 0.0026666154 0.0027710252 
  202600   -1726349.6 5.414574e-05 0.00026684053 -0.004599652 0.0064519608 0.0026633792 0.0027714891 
  202700   -1726349.6 5.3442085e-05 0.00026700445 -0.0045961947 0.0064528217 0.0026601302 0.0027719546 
  202800   -1726349.6 5.2736317e-05 0.00026716891 -0.0045927261 0.0064536857 0.0026568712 0.0027724212 
  202900   -1726349.6 5.2032006e-05 0.00026733302 -0.004589264 0.0064545483 0.0026536189 0.0027728865 
  203000   -1726349.6 5.1334176e-05 0.00026749568 -0.0045858328 0.0064554034 0.0026503962 0.0027733473 
  203100   -1726349.6 5.0636343e-05 0.00026765848 -0.0045824002 0.0064562592 0.0026471729 0.0027738079 
  203200   -1726349.6 4.9935965e-05 0.00026782193 -0.0045789542 0.0064571185 0.0026439376 0.0027742699 
  203300   -1726349.6 4.9233761e-05 0.00026798584 -0.0045754984 0.0064579805 0.0026406936 0.0027747328 
  203400   -1726349.6 4.8535398e-05 0.00026814883 -0.0045720607 0.0064588382 0.0026374674 0.0027751929 
  203500   -1726349.6 4.7842148e-05 0.00026831074 -0.0045686472 0.0064596902 0.0026342643 0.0027756493 
  203600   -1726349.6 4.7146467e-05 0.00026847331 -0.0045652205 0.0064605456 0.0026310495 0.0027761072 
  203700   -1726349.6 4.6447854e-05 0.00026863664 -0.0045617783 0.0064614052 0.0026278208 0.0027765667 
  203800   -1726349.6 4.575162e-05 0.00026879937 -0.0045583473 0.0064622622 0.0026246032 0.0027770243 
  203900   -1726349.6 4.506148e-05 0.00026896079 -0.0045549451 0.0064631123 0.0026214132 0.0027774777 
  204000   -1726349.6 4.4369541e-05 0.00026912273 -0.0045515328 0.0064639651 0.0026182144  0.002777932 
  204100   -1726349.6 4.3674576e-05 0.00026928543 -0.0045481048  0.006464822 0.0026150014  0.002778388 
  204200   -1726349.6 4.2980123e-05 0.00026944797 -0.0045446787 0.0064656787 0.0026117908 0.0027788434 
  204300   -1726349.6  4.22925e-05 0.00026960898 -0.0045412852 0.0064665275 0.0026086114  0.002779294 
  204400   -1726349.6 4.1604697e-05 0.00026977014 -0.0045378897 0.0064673771 0.0026054307 0.0027797446 
  204500   -1726349.6 4.0914096e-05 0.00026993201 -0.0045344793 0.0064682305 0.0026022367 0.0027801967 
  204600   -1726349.6 4.022182e-05 0.00027009432 -0.0045310598 0.0064690865 0.0025990347 0.0027806496 
  204700   -1726349.6 3.9535102e-05 0.00027025527 -0.0045276672 0.0064699359 0.0025958585 0.0027810985 
  204800   -1726349.6 3.8851504e-05 0.00027041567 -0.0045242885 0.0064707821 0.0025926959 0.0027815453 
  204900   -1726349.6 3.8165441e-05 0.00027057668 -0.0045208967 0.0064716319 0.0025895217 0.0027819934 
  205000   -1726349.6 3.7476831e-05 0.00027073835 -0.0045174914 0.0064724852 0.0025863354 0.0027824428 
  205100   -1726349.6 3.6790304e-05 0.00027089948 -0.0045140957 0.0064733363 0.0025831587 0.0027828906 
  205200   -1726349.6 3.6110016e-05 0.00027105928 -0.0045107297 0.0064741802 0.0025800104 0.0027833341 
  205300   -1726349.6  3.54285e-05 0.00027121942 -0.0045073566 0.0064750261  0.002576856 0.0027837781 
  205400   -1726349.6 3.4744595e-05 0.00027138018 -0.0045039706 0.0064758754 0.0025736903 0.0027842235 
  205500   -1726349.6 3.405929e-05 0.00027154128 -0.0045005769 0.0064767269 0.0025705178 0.0027846694 
  205600   -1726349.6 3.337863e-05 0.00027170124 -0.0044972056  0.006477573 0.0025673669 0.0027851121 
  205700   -1726349.6 3.2701987e-05 0.00027186038 -0.004493853 0.0064784146 0.0025642341 0.0027855519 
  205800   -1726349.6 3.2023392e-05 0.00027202012 -0.0044904895 0.0064792591 0.0025610916 0.0027859927 
  205900   -1726349.6 3.1342133e-05 0.00027218047 -0.0044871119 0.0064801074 0.0025579366  0.002786435 
  206000   -1726349.6 3.0661466e-05 0.00027234067 -0.0044837365 0.0064809554 0.0025547843 0.0027868765 
  206100   -1726349.6 2.9987648e-05 0.00027249929 -0.0044803943 0.0064817952 0.0025516635 0.0027873134 
  206200   -1726349.6 2.9313399e-05 0.00027265813 -0.0044770486 0.0064826361 0.0025485401 0.0027877503 
  206300   -1726349.6 2.8636343e-05 0.00027281768 -0.004473688  0.006483481 0.0025454034 0.0027881888 
  206400   -1726349.6 2.7957889e-05 0.00027297758 -0.0044703196  0.006484328 0.0025422599 0.0027886279 
  206500   -1726349.6 2.7285731e-05 0.00027313596 -0.0044669818 0.0064851675 0.0025391457 0.0027890626 
  206600   -1726349.6 2.6615518e-05 0.00027329401 -0.0044636524 0.0064860051 0.0025360398 0.0027894959 
  206700   -1726349.6 2.5942264e-05 0.00027345282 -0.0044603069  0.006486847 0.0025329195 0.0027899308 
  206800   -1726349.6 2.5266749e-05 0.00027361219 -0.0044569493 0.0064876921 0.0025297884  0.002790367 
  206900   -1726349.6 2.4596657e-05 0.00027377022 -0.0044536181 0.0064885308 0.0025266827 0.0027907993 
  207000   -1726349.6  2.39297e-05 0.00027392767 -0.0044503011 0.0064893661 0.0025235907 0.0027912294 
  207100   -1726349.6 2.3259945e-05 0.00027408582 -0.0044469691 0.0064902053 0.0025204853  0.002791661 
  207200   -1726349.6 2.2587955e-05 0.00027424454 -0.0044436251 0.0064910478 0.0025173694 0.0027920938 
  207300   -1726349.6 2.1919153e-05 0.00027440243 -0.0044402964 0.0064918866 0.0025142683 0.0027925242 
  207400   -1726349.6 2.1255412e-05 0.00027455924 -0.0044369917 0.0064927196 0.0025111901 0.0027929511 
  207500   -1726349.6 2.0589906e-05 0.00027471653 -0.0044336771 0.0064935552 0.0025081033 0.0027933789 
  207600   -1726349.6 1.9921691e-05 0.00027487451 -0.004430348 0.0064943947 0.0025050036 0.0027938082 
  207700   -1726349.6 1.9253618e-05 0.0002750324 -0.0044270191 0.0064952343 0.0025019047 0.0027942371 
  207800   -1726349.6 1.8592374e-05 0.00027518873 -0.0044237232 0.0064960658 0.0024988369 0.0027946614 
  207900   -1726349.6 1.7931115e-05 0.00027534516 -0.004420426 0.0064968979 0.0024957686 0.0027950854 
  208000   -1726349.6 1.7267088e-05 0.00027550228 -0.004417114 0.0064977338 0.0024926872 0.0027955109 
  208100   -1726349.6 1.6601493e-05 0.0002756598 -0.0044137934 0.0064985721 0.0024895983 0.0027959372 
  208200   -1726349.6 1.5940288e-05 0.00027581621 -0.0044104941 0.0064994051 0.0024865298 0.0027963603 
  208300   -1726349.6 1.5282982e-05 0.00027597183 -0.004407213 0.0065002338 0.0024834788 0.0027967807 
  208400   -1726349.6 1.4623991e-05 0.00027612787 -0.0044039225 0.0065010651 0.0024804196 0.0027972019 
  208500   -1726349.6 1.3962535e-05 0.00027628455 -0.0044006186 0.0065018999 0.0024773486 0.0027976245 
  208600   -1726349.6 1.3301054e-05 0.0002764412 -0.004397314  0.006502735 0.0024742774 0.0027980467 
  208700   -1726349.6 1.2646329e-05 0.00027659627 -0.0043940422 0.0065035621 0.0024712373 0.0027984644 
  208800   -1726349.6 1.1991704e-05 0.00027675141 -0.0043907696 0.0065043895 0.0024681971 0.0027988817 
  208900   -1726349.6 1.1334659e-05 0.00027690717 -0.004387484 0.0065052204 0.0024651454 0.0027993004 
  209000   -1726349.6 1.0675597e-05 0.00027706341 -0.0043841876 0.0065060542 0.0024620841   0.00279972 
  209100   -1726349.6 1.0021252e-05 0.00027721849 -0.004380914 0.0065068824 0.0024590448 0.0028001364 
  209200   -1726349.6 9.3705528e-06 0.00027737281 -0.0043776575 0.0065077064 0.0024560218 0.0028005501 
  209300   -1726349.6 8.7179423e-06 0.00027752763 -0.0043743904 0.0065085333 0.0024529895 0.0028009649 
  209400   -1726349.6 8.062894e-06 0.00027768307  -0.00437111 0.0065093637 0.0024499455 0.0028013809 
  209500   -1726349.6 7.4085493e-06 0.0002778383 -0.0043678325 0.0065101936 0.0024469047 0.0028017962 
  209600   -1726349.6 6.7604539e-06 0.00027799208 -0.0043645854 0.0065110159 0.0024438927 0.0028022073 
  209700   -1726349.6 6.1125135e-06 0.00027814589 -0.0043613379 0.0065118385  0.002440881  0.002802618 
  209800   -1726349.6 5.4620737e-06 0.00027830034 -0.0043580769 0.0065126647 0.0024378572   0.00280303 
  209900   -1726349.6 4.8096989e-06 0.00027845524 -0.0043548054 0.0065134938 0.0024348243  0.002803443 
  210000   -1726349.6 4.1615554e-06 0.0002786091 -0.0043515544 0.0065143177  0.002431811 0.0028038529 
  210100   -1726349.6 3.5176774e-06 0.00027876205 -0.0043483236 0.0065151368 0.0024288169   0.00280426 
  210200   -1726349.6 2.871563e-06 0.00027891557 -0.0043450806  0.006515959 0.0024258122 0.0028046682 
  210300   -1726349.6 2.2231519e-06 0.00027906965 -0.004341825 0.0065167847 0.0024227963 0.0028050776 
  210400   -1726349.6 1.5756075e-06 0.00027922346 -0.0043385734 0.0065176095 0.0024197847 0.0028054861 
  210500   -1726349.6 9.3457815e-07 0.00027937579 -0.0043353534 0.0065184264 0.0024168029 0.0028058903 
  210600   -1726349.6 2.924271e-07 0.00027952845 -0.0043321266 0.0065192452 0.0024138154 0.0028062949 
  210700   -1726349.6 -3.5243028e-07 0.00027968178 -0.0043288852 0.0065200678 0.0024108149  0.002806701 
  210800   -1726349.6 -9.9779109e-07 0.00027983521 -0.0043256406 0.0065208915  0.002407812 0.0028071071 
  210900   -1726349.6 -1.6365355e-06 0.00027998706 -0.0043224283 0.0065217071 0.0024048397 0.0028075087 
  211000   -1726349.6 -2.275124e-06 0.00028013894 -0.0043192158 0.0065225229 0.0024018676   0.00280791 
  211100   -1726349.6 -2.9160265e-06 0.00028029142 -0.0043159906  0.006523342 0.0023988844 0.0028083125 
  211200   -1726349.6 -3.558766e-06 0.00028044435 -0.0043127552  0.006524164 0.0023958923 0.0028087159 
  211300   -1726349.6 -4.1978393e-06 0.00028059635 -0.0043095376 0.0065249815 0.0023929173 0.0028091166 
  211400   -1726349.6 -4.8325795e-06 0.00028074741 -0.0043063407 0.0065257939 0.0023899619 0.0028095144 
  211500   -1726349.6 -5.4686454e-06 0.00028089882 -0.0043031361 0.0065266084     0.002387 0.0028099128 
  211600   -1726349.6 -6.1068186e-06 0.00028105076 -0.0042999199 0.0065274261 0.0023840279 0.0028103123 
  211700   -1726349.6 -6.7461787e-06 0.00028120296 -0.004296697 0.0065282456 0.0023810502 0.0028107121 
  211800   -1726349.6 -7.3799684e-06 0.0002813538 -0.0042935014 0.0065290582 0.0023780983 0.0028111082 
  211900   -1726349.6 -8.0113073e-06 0.00028150413 -0.004290317 0.0065298682 0.0023751573 0.0028115026 
  212000   -1726349.6 -8.6447811e-06  0.000281655 -0.0042871209 0.0065306813  0.002372206  0.002811898 
  212100   -1726349.6 -9.2803474e-06 0.00028180641 -0.0042839132 0.0065314975 0.0023692445 0.0028122944 
  212200   -1726349.6 -9.9151155e-06 0.00028195756 -0.0042807089 0.0065323129 0.0023662869 0.0028126901 
  212300   -1726349.6 -1.0543432e-05 0.0002821072 -0.0042775363 0.0065331204 0.0023633589 0.0028130814 
  212400   -1726349.6 -1.1172386e-05 0.00028225706 -0.0042743593 0.0065339292 0.0023604275 0.0028134729 
  212500   -1726349.6 -1.1804097e-05 0.00028240761 -0.0042711674  0.006534742 0.0023574828 0.0028138659 
  212600   -1726349.6 -1.2436706e-05 0.00028255836  -0.00426797 0.0065355562 0.0023545338 0.0028142591 
  212700   -1726349.6 -1.3063161e-05 0.00028270757 -0.0042648034 0.0065363628 0.0023516135 0.0028146482 
  212800   -1726349.6 -1.368869e-05 0.00028285669 -0.0042616399 0.0065371686 0.0023486969 0.0028150365 
  212900   -1726349.6 -1.4316961e-05 0.00028300646 -0.0042584617 0.0065379784 0.0023457671 0.0028154262 
  213000   -1726349.6 -1.4946715e-05 0.00028315657 -0.0042552753 0.0065387904 0.0023428303 0.0028158165 
  213100   -1726349.6 -1.5570169e-05 0.00028330518 -0.0042521198 0.0065395947 0.0023399226 0.0028162027 
  213200   -1726349.6 -1.6193108e-05 0.0002834537 -0.0042489659 0.0065403986 0.0023370169 0.0028165883 
  213300   -1726349.6 -1.6819702e-05 0.00028360315 -0.0042457924 0.0065412077 0.0023340937 0.0028169759 
  213400   -1726349.6 -1.7444059e-05 0.00028375196 -0.0042426298 0.0065420142  0.002331181 0.0028173618 
  213500   -1726349.6 -1.8063604e-05 0.00028389973 -0.0042394903 0.0065428148 0.0023282902 0.0028177445 
  213600   -1726349.6 -1.868658e-05 0.00028404832 -0.0042363325 0.0065436203 0.0023253831 0.0028181291 
  213700   -1726349.6 -1.9310805e-05 0.0002