LAMMPS (22 Aug 2018)
Processor partition = 2
# NEB for Au triple junction
# Yin Zhang
# March 25th, 2019

units			metal
boundary		p p p

atom_style		atomic
atom_modify		map array sort 0 0


read_data		init.in
  orthogonal box = (0 0 0) to (170 170 379.205)
  1 by 1 by 1 MPI processor grid
  reading atoms ...
  443580 atoms
pair_style		eam
pair_coeff		* * /home/yzhang951/Au_Al/Au_u3.eam
Reading potential file /home/yzhang951/Au_Al/Au_u3.eam with DATE: 2007-06-11

thermo			100
thermo_style	custom step etotal pxx pyy pzz pxy pyz pxz

variable		u equal part

dump			1 all cfg 1000 Au*_$u.cfg mass type xs ys zs
dump			1 all cfg 1000 Au*_2.cfg mass type xs ys zs
dump_modify		1 element Au sort id

fix				1 all neb 100
min_style		quickmin

neb				0 0.01 1000000 1000000 100 final final.in
WARNING: Using 'neigh_modify every 1 delay 0 check yes' setting during minimization (../min.cpp:168)
Neighbor list info ...
  update every 1 steps, delay 0 steps, check yes
  max neighbors/atom: 2000, page size: 100000
  master list distance cutoff = 7.55
  ghost atom cutoff = 7.55
  binsize = 3.775, bins = 46 46 101
  1 neighbor lists, perpetual/occasional/extra = 1 0 0
  (1) pair eam, perpetual
      attributes: half, newton on
      pair build: half/bin/atomonly/newton
      stencil: half/bin/3d/newton
      bin: standard
Per MPI rank memory allocation (min/avg/max) = 232.7 | 232.7 | 232.7 Mbytes
Step TotEng Pxx Pyy Pzz Pxy Pyz Pxz 
       0   -1723852.4    1276.7053    1502.1505    1198.5895    99.794962   -67.279595    99.440575 
     100   -1726064.1     168.7997    266.03555    200.03936    130.43603   -44.772166    39.516684 
     200     -1726193    97.030984    159.60473    125.84338    142.76185   -42.728324    34.135881 
     300   -1726253.1    61.126759    108.05039    94.917266    156.11272   -40.239161    28.421538 
     400   -1726307.6     39.22988    80.540101    79.066661    168.14418   -38.526661    25.061546 
     500   -1726321.5    27.026399    65.649247     71.29159    179.20327   -37.552878    21.906462 
     600   -1726331.4    17.646715    55.409197    65.967233     189.8659   -37.031599    19.401185 
     700   -1726346.7    10.175296    48.207083    61.956919    198.71784   -36.876976    17.899802 
     800   -1726351.2    4.8360068    43.520153    59.488651    207.12697   -37.028816    16.488392 
     900   -1726359.6  -0.26661521    39.465171    57.091123    215.22716   -37.388359    15.558197 
    1000   -1726362.5   -3.8417689    36.867618    55.574462    222.26006   -37.901846    14.833736 
    1100   -1726364.9   -7.0772849    34.514054    54.170598    229.25332   -38.582672    14.257969 
    1200   -1726370.1   -10.351942    32.158924    52.702045    236.00945   -39.381585    13.969828 
    1300     -1726372   -12.809624    30.362454    51.758591    241.88798   -40.153424    13.730889 
    1400   -1726373.4   -15.103358    28.516287    50.819758    247.73902   -40.992477     13.54915 
    1500   -1726376.3   -17.412756    26.508618    49.714108    253.40881   -41.858389    13.479912 
    1600   -1726377.4   -19.252972    24.723324    48.810973    258.55418   -42.683866    13.385388 
    1700   -1726378.3   -21.061911    22.867376    47.883643    263.77884   -43.547327    13.297382 
    1800   -1726380.7   -22.946256    20.879505    46.820912    268.88526   -44.411589    13.290853 
    1900   -1726381.4   -24.455786    19.175163    45.949725    273.45001   -45.182009    13.232291 
    2000   -1726382.2   -25.983613    17.386287    45.047801    278.14301   -45.980315     13.17583 
    2100   -1726383.1   -27.529082    15.537881    44.108245    282.82592   -46.793376    13.150992 
    2200   -1726384.6   -28.979019    13.840417    43.210992    287.00448   -47.518685    13.162747 
    2300   -1726385.2   -30.278807    12.197192    42.379132     291.1992   -48.261366    13.127957 
    2400   -1726386.5   -31.709866     10.45818    41.450519    295.44739   -49.036481    13.126567 
    2500   -1726387.2   -32.921783    8.9684638    40.682224    299.21716   -49.741033    13.090464 
    2600   -1726387.8   -34.139743    7.4598699    39.874484    303.04179   -50.469613    13.051861 
    2700   -1726388.3   -35.340018    5.9685199    39.072441    306.90848   -51.225943    13.000586 
    2800   -1726389.6   -36.544001    4.5643918    38.264517    310.37589   -51.921979    13.000451 
    2900   -1726390.2   -37.635893     3.234905    37.534915    313.77051   -52.626488    12.963329 
    3000   -1726390.7   -38.710973    1.9083336    36.831264    317.20509   -53.342886    12.917429 
    3100   -1726391.9   -39.820317   0.61676909    36.102493    320.41709   -54.030641    12.917257 
    3200   -1726392.4   -40.835682  -0.59406445    35.494354    323.49855   -54.704804    12.896215 
    3300   -1726392.8    -41.88439   -1.8170199    34.879796    326.65427   -55.405639    12.878066 
    3400     -1726394   -42.959263   -2.9865628    34.248122    329.58473   -56.088698    12.889933 
    3500   -1726394.5   -43.902724   -4.0078385     33.69198    332.41523   -56.765079    12.871601 
    3600     -1726395   -44.866452   -5.0020091    33.099088    335.30266    -57.50752    12.867305 
    3700     -1726396   -45.819926   -5.9239648    32.514223    337.95393   -58.216789    12.887799 
    3800   -1726396.4   -46.696696   -6.7747683    32.008009    340.56563   -58.942974    12.891675 
    3900   -1726396.8   -47.574734   -7.6159755    31.502056    343.21645   -59.708479    12.902811 
    4000   -1726397.7    -48.45018   -8.3968139    31.006736     345.6284   -60.435797     12.93428 
    4100   -1726398.1   -49.217599   -9.1055589     30.58029    347.97499   -61.160337    12.959282 
    4200   -1726398.5   -49.994357   -9.8215075    30.152412    350.35306   -61.922561    13.002064 
    4300   -1726399.3   -50.774076   -10.497543    29.710539    352.64366    -62.68257    13.068426 
    4400   -1726399.7    -51.45134   -11.111784     29.34163    354.79148   -63.418061    13.126145 
    4500   -1726400.1   -52.123203   -11.732575    28.971372    356.94878   -64.183025     13.19247 
    4600   -1726400.8   -52.821541   -12.369009    28.580123    359.06184   -64.957851    13.289827 
    4700   -1726401.1   -53.425149   -12.939758    28.232733    361.04456    -65.70377    13.372882 
    4800   -1726401.4     -53.9888   -13.508585    27.890408    363.00722   -66.458156     13.47667 
    4900     -1726402   -54.584158   -14.106587    27.522634    364.97353   -67.239064    13.611572 
    5000   -1726402.4   -55.078511   -14.632449    27.210213     366.7441   -67.956883    13.731407 
    5100   -1726402.7    -55.56246    -15.17478     26.88152    368.55351   -68.710522    13.855595 
    5200   -1726402.9   -56.035163   -15.723844    26.536114    370.35282   -69.482805     13.99926 
    5300   -1726403.5   -56.500567   -16.243479      26.1888    371.99828   -70.208718    14.150387 
    5400   -1726403.8   -56.910387    -16.72308    25.878012    373.58991   -70.925172    14.292079 
    5500     -1726404    -57.30908   -17.194602    25.563307    375.22526    -71.66903    14.446366 
    5600   -1726404.5   -57.684049   -17.637112    25.259412    376.69158   -72.362036    14.611822 
    5700   -1726404.7   -58.011612   -18.048407    24.998674    378.17413   -73.070674    14.767764 
    5800   -1726405.1   -58.376526   -18.468844    24.706848    379.63087   -73.784697    14.937974 
    5900   -1726405.3   -58.672001   -18.824219    24.461587    380.97185   -74.462174    15.090361 
    6000   -1726405.5   -58.964806   -19.172155    24.207823    382.32359   -75.160466      15.2547 
    6100   -1726405.8    -59.24887   -19.500879    23.963703    383.67146   -75.875444     15.42274 
    6200   -1726406.2   -59.534761   -19.805173    23.722196    384.90426   -76.543675    15.594009 
    6300   -1726406.4   -59.784237   -20.080637     23.50729    386.10953   -77.207127    15.757646 
    6400   -1726406.6   -60.023877    -20.34118    23.299578    387.31845   -77.888278    15.932283 
    6500   -1726406.9   -60.282814   -20.590242    23.081722    388.48465   -78.565082    16.115059 
    6600   -1726407.1   -60.495519   -20.809522    22.895877    389.57039   -79.207503    16.281168 
    6700   -1726407.3   -60.685254   -21.009087    22.718608    390.67643   -79.873949    16.456238 
    6800   -1726407.6   -60.892716   -21.191642    22.537953    391.73221   -80.527384     16.64234 
    6900   -1726407.7   -61.070128   -21.345183    22.398448    392.72657   -81.155564    16.811205 
    7000   -1726407.9   -61.241059   -21.499049    22.258893    393.73629   -81.812028     16.98872 
    7100   -1726408.2   -61.412081   -21.641379    22.106617    394.70625    -82.45808    17.178929 
    7200   -1726408.4   -61.541941   -21.744625    21.986261    395.60515   -83.066653     17.34764 
    7300   -1726408.5    -61.66394     -21.8432    21.878604    396.51718   -83.699006    17.522598 
    7400   -1726408.8   -61.788608   -21.943567    21.763415    397.43025   -84.348416    17.712903 
    7500   -1726408.9   -61.892655   -22.017289    21.668719    398.25829   -84.946952     17.88762 
    7600   -1726409.1   -61.979213   -22.074958    21.581563    399.07456   -85.546992    18.058135 
    7700   -1726409.2   -62.070539     -22.1196    21.502338    399.89846   -86.165207    18.237264 
    7800   -1726409.5   -62.176256   -22.178489    21.409256    400.70088   -86.779774    18.424376 
    7900   -1726409.6    -62.24905   -22.215884    21.340133    401.43748   -87.352969    18.592847 
    8000   -1726409.7   -62.304458   -22.239761    21.287184    402.18063   -87.947119    18.760759 
    8100   -1726409.9   -62.367775   -22.267642    21.223842    402.91903    -88.54325    18.941277 
    8200   -1726410.1    -62.39895   -22.272321    21.183073    403.59287   -89.103048     19.10232 
    8300   -1726410.2   -62.435518   -22.281559    21.143307    404.27692   -89.687527     19.27038 
    8400   -1726410.3   -62.461937   -22.291028    21.108669    404.96346   -90.286785    19.443493 
    8500   -1726410.5   -62.501955   -22.301862    21.066825    405.60612   -90.864331    19.612252 
    8600   -1726410.6   -62.515777   -22.295376    21.047633    406.20343   -91.410738    19.770292 
    8700   -1726410.7    -62.52396   -22.283668    21.027142    406.79901   -91.968897    19.928657 
    8800   -1726410.8   -62.531324   -22.277902     21.00852    407.40122   -92.546181    20.096207 
    8900   -1726411.1   -62.536939   -22.270467    20.977956    407.98162   -93.113904    20.261363 
    9000   -1726411.2   -62.519829   -22.249805    20.972026    408.51398    -93.63859    20.409033 
    9100   -1726411.2   -62.501138    -22.22824    20.965352    409.06116   -94.184972    20.562482 
    9200   -1726411.4   -62.482576   -22.213652    20.956248    409.59084   -94.728686    20.721806 
    9300   -1726411.5   -62.446289    -22.19379    20.961148    410.09384    -95.24969    20.866835 
    9400   -1726411.6   -62.398366   -22.172869    20.966615    410.60903   -95.791984    21.017043 
    9500   -1726411.8   -62.363458   -22.155199    20.967079    411.08028   -96.298077    21.164302 
    9600   -1726411.8    -62.30776   -22.127574    20.982265    411.55673   -96.819695    21.311989 
    9700   -1726411.9    -62.24636   -22.104405    20.999335    412.04611   -97.355717    21.462751 
    9800   -1726412.1   -62.197723   -22.079681    21.006138    412.48669   -97.849954    21.605534 
    9900   -1726412.2   -62.133862   -22.045951    21.025392    412.92769    -98.34468    21.741078 
   10000   -1726412.3   -62.060704   -22.003074    21.050642    413.36909   -98.852757    21.878375 
   10100   -1726412.4   -62.003345    -21.96909    21.067785    413.80683   -99.356541    22.022454 
   10200   -1726412.5   -61.932488   -21.923492     21.09164    414.20853   -99.839691    22.152122 
   10300   -1726412.6   -61.851763   -21.863473    21.124472    414.62136   -100.35069    22.286561 
   10400   -1726412.7   -61.779572   -21.813541    21.146163    414.99749   -100.82599    22.420775 
   10500   -1726412.8   -61.686411   -21.741452    21.180828    415.38232    -101.3132    22.552512 
   10600   -1726412.9   -61.596355   -21.662675    21.213783    415.75534   -101.79782    22.686043 
   10700     -1726413   -61.502915    -21.57316    21.259791    416.11266   -102.27122    22.814109 
   10800   -1726413.1   -61.406996   -21.482741    21.302027    416.47288   -102.76211    22.952124 
   10900   -1726413.2   -61.310305    -21.39521    21.346114    416.80602   -103.22233    23.076225 
   11000   -1726413.3   -61.206704   -21.309845    21.392389    417.15203   -103.70904    23.202274 
   11100   -1726413.4   -61.105009   -21.218153    21.432342    417.47977   -104.18093    23.326704 
   11200   -1726413.5   -60.993725   -21.120717    21.480302    417.79492   -104.64283    23.443694 
   11300   -1726413.5   -60.877622   -21.011586    21.531325    418.11975   -105.12561    23.568819 
   11400   -1726413.6   -60.779123   -20.919498    21.573027    418.41268   -105.57437    23.683179 
   11500   -1726413.7   -60.664125   -20.814519    21.626254    418.71304   -106.03635    23.798542 
   11600   -1726413.8   -60.555808    -20.70826    21.671212    418.99853   -106.49196    23.914846 
   11700   -1726413.8   -60.441041   -20.592266    21.725121    419.27365   -106.94411    24.024775 
   11800     -1726414   -60.326804   -20.478519    21.773376    419.54992   -107.40944    24.137424 
   11900     -1726414   -60.208643    -20.36428    21.824888    419.80302     -107.845    24.239496 
   12000   -1726414.1   -60.088609   -20.239537    21.880585    420.07002    -108.3046    24.346922 
   12100   -1726414.2   -59.974429   -20.124987    21.922064    420.32232   -108.74741    24.453293 
   12200   -1726414.2   -59.852547   -19.997868    21.969625    420.56677   -109.18331    24.552349 
   12300   -1726414.3   -59.724425   -19.867778    22.024127    420.81359   -109.63293    24.654021 
   12400   -1726414.4   -59.603696   -19.748207    22.069037    421.05096   -110.07107    24.757688 
   12500   -1726414.4   -59.476698   -19.627989    22.116148    421.27663   -110.49783    24.850807 
   12600   -1726414.5   -59.341938   -19.495782    22.164681     421.5093   -110.94264    24.948596 
   12700   -1726414.6    -59.21744   -19.375084    22.202694    421.72779   -111.36382    25.046282 
   12800   -1726414.6   -59.087301   -19.252447    22.245344    421.94734   -111.78694    25.139616 
   12900   -1726414.7   -58.948451   -19.130542    22.292308    422.16966   -112.21939    25.235925 
   13000   -1726414.8   -58.808761   -19.010014    22.336933    422.38801   -112.65085    25.334802 
   13100   -1726414.8   -58.669231   -18.890709    22.382285     422.5882    -113.0597    25.424098 
   13200   -1726414.8   -58.523181   -18.759957    22.429487    422.79513   -113.47905    25.514758 
   13300   -1726414.9   -58.370303    -18.63083    22.477088    423.00267   -113.90798    25.608701 
   13400     -1726415   -58.231228    -18.51205    22.516231    423.19153   -114.30514    25.697407 
   13500     -1726415   -58.078997   -18.382883    22.565094    423.38476   -114.71108    25.785213 
   13600     -1726415   -57.922608    -18.25409    22.610083    423.57869   -115.12913    25.876102 
   13700   -1726415.1   -57.776725   -18.139709    22.653196    423.75001   -115.51095    25.962093 
   13800   -1726415.1   -57.620984   -18.014869    22.707719    423.92582   -115.90916    26.047152 
   13900   -1726415.2   -57.464474   -17.892349    22.751468    424.10393   -116.30902    26.138016 
   14000   -1726415.3   -57.307295   -17.766118    22.800854    424.27305   -116.68581    26.219962 
   14100   -1726415.3     -57.1399   -17.637799    22.852844    424.44391   -117.07782    26.308006 
   14200   -1726415.4   -56.980576   -17.517323    22.897878    424.60823   -117.45453    26.394083 
   14300   -1726415.4   -56.807042    -17.38764    22.950133    424.77369   -117.82956    26.478019 
   14400   -1726415.5   -56.635968    -17.25971    22.998872    424.93851    -118.2129    26.566649 
   14500   -1726415.5   -56.472209   -17.136534    23.049415    425.09193    -118.5735    26.647822 
   14600   -1726415.5   -56.294967    -17.00821    23.105243    425.25532   -118.94928    26.731234 
   14700   -1726415.6   -56.122713   -16.889432     23.15485    425.41004   -119.30894    26.816216 
   14800   -1726415.6   -55.944109   -16.766228    23.213433    425.56246   -119.66577    26.898114 
   14900   -1726415.6   -55.766693   -16.640253    23.264361    425.72247    -120.0408    26.983622 
   15000   -1726415.7   -55.598412   -16.528235    23.310253    425.86935   -120.38298    27.064828 
   15100   -1726415.7    -55.42153   -16.411013     23.36036    426.01993   -120.73673    27.147843 
   15200   -1726415.8   -55.246698   -16.295624    23.409853    426.17178   -121.10165    27.234522 
   15300   -1726415.8   -55.081517   -16.185691    23.454389    426.31014   -121.43741    27.314856 
   15400   -1726415.8   -54.906364   -16.067645    23.505369    426.45502   -121.78432    27.397929 
   15500   -1726415.9   -54.727497   -15.951606    23.553499     426.6014   -122.14112    27.487455 
   15600   -1726415.9   -54.557966   -15.843489    23.604535     426.7361   -122.47233    27.564397 
   15700   -1726415.9   -54.378257   -15.728468    23.659689    426.87653   -122.81785    27.644734 
   15800     -1726416   -54.204621   -15.619892    23.710084    427.01653   -123.16523    27.730195 
   15900     -1726416   -54.038631   -15.513931    23.761021    427.14958   -123.49315    27.811295 
   16000     -1726416   -53.861396   -15.402435    23.814123    427.28457   -123.83455     27.89266 
   16100   -1726416.1   -53.693293   -15.298457    23.860037    427.41391   -124.16447    27.973726 
   16200   -1726416.1   -53.523054   -15.193676    23.912314     427.5421    -124.4887    28.052721 
   16300   -1726416.1   -53.347893   -15.085207    23.963109    427.67486    -124.8276    28.138449 
   16400   -1726416.2   -53.184312   -14.990532    24.012062    427.79717   -125.14163    28.218026 
   16500   -1726416.2     -53.0161   -14.887864     24.06488     427.9194   -125.46018    28.301435 
   16600   -1726416.2   -52.844487    -14.78301    24.118997      428.047   -125.78908    28.388273 
   16700   -1726416.3   -52.682937   -14.687672    24.166848    428.16377   -126.09097     28.46848 
   16800   -1726416.3   -52.511571    -14.58176     24.22052    428.28507   -126.40487    28.553553 
   16900   -1726416.3    -52.34239   -14.478113    24.274018    428.40332   -126.71183    28.637664 
   17000   -1726416.4   -52.178672   -14.380827    24.330004    428.51841   -127.01308     28.71788 
   17100   -1726416.4   -52.004567     -14.2817    24.383911     428.6371   -127.32489    28.805638 
   17200   -1726416.4   -51.837609   -14.183406    24.441104    428.74966   -127.61669    28.886003 
   17300   -1726416.4   -51.656342    -14.07577    24.504064    428.87123   -127.92409    28.969323 
   17400   -1726416.5   -51.487479   -13.977974    24.559227    428.98357   -128.20992    29.048873 
   17500   -1726416.5    -51.30316   -13.874431    24.622418    429.09771   -128.50543    29.129133 
   17600   -1726416.5   -51.127864   -13.774886    24.681169    429.21052   -128.79344    29.208538 
   17700   -1726416.6   -50.951156   -13.672536    24.739898    429.32256   -129.08047    29.284288 
   17800   -1726416.6   -50.770536   -13.573073    24.796476    429.43707   -129.37536    29.362327 
   17900   -1726416.6   -50.597651   -13.478583    24.852758    429.54396     -129.648    29.435817 
   18000   -1726416.6   -50.416453   -13.383125    24.908538    429.65656   -129.93495    29.511195 
   18100   -1726416.7   -50.240485   -13.289447     24.96374    429.76431   -130.20891    29.582379 
   18200   -1726416.7   -50.066486    -13.19653    25.019613    429.86712   -130.48026    29.651633 
   18300   -1726416.7   -49.882383   -13.097445    25.081168    429.97562   -130.76089    29.723561 
   18400   -1726416.7    -49.71601   -13.012891    25.136298    430.07276   -131.01665    29.790563 
   18500   -1726416.8   -49.541611   -12.925978    25.193153    430.17364   -131.28514    29.857589 
   18600   -1726416.8   -49.358701   -12.833804    25.250049    430.27469    -131.5598     29.92417 
   18700   -1726416.8   -49.198638    -12.75501    25.298044       430.37   -131.81807    29.990629 
   18800   -1726416.8   -49.032673   -12.673852     25.35007    430.46303   -132.07105    30.053433 
   18900   -1726416.8   -48.856433   -12.587483    25.404668    430.55918    -132.3306    30.118193 
   19000   -1726416.9   -48.686829   -12.507595    25.458793    430.65417   -132.58949    30.182847 
   19100   -1726416.9   -48.521451   -12.426801    25.512855    430.74127   -132.83512    30.243142 
   19200   -1726416.9   -48.346786   -12.345068    25.566799     430.8335   -133.09108    30.302911 
   19300   -1726416.9   -48.179326   -12.267574    25.616974    430.92017   -133.34133    30.361807 
   19400     -1726417   -48.013299   -12.189933    25.666778    431.00215   -133.58324    30.418763 
   19500     -1726417   -47.840968   -12.106822    25.720099    431.08974    -133.8306    30.475613 
   19600     -1726417   -47.668048    -12.02489    25.773792    431.17591   -134.08268    30.534252 
   19700     -1726417   -47.504497   -11.949032    25.823349    431.25842   -134.32434    30.590132 
   19800     -1726417   -47.344701    -11.87789    25.871786    431.33592   -134.55602    30.641534 
   19900     -1726417   -47.177654   -11.805259    25.924006    431.41613   -134.79349    30.693815 
   20000   -1726417.1   -47.013318   -11.732284    25.974564    431.49473   -135.03443    30.747009 
   20100   -1726417.1   -46.857985   -11.663324    26.021362    431.56904    -135.2601    30.795461 
   20200   -1726417.1   -46.695703   -11.587486     26.07369    431.64651   -135.49242    30.843728 
   20300   -1726417.1   -46.528714   -11.517518    26.122236    431.72173   -135.73074      30.8941 
   20400   -1726417.1   -46.373429   -11.453766    26.171038    431.78978   -135.95035    30.942424 
   20500   -1726417.2   -46.209522   -11.381311    26.220832     431.8604   -136.17865    30.990163 
   20600   -1726417.2    -46.04327   -11.312824    26.269862    431.93251   -136.41328    31.038341 
   20700   -1726417.2    -45.88643   -11.251064    26.314798    432.00093   -136.63439    31.084551 
   20800   -1726417.2   -45.734029   -11.186823    26.362717    432.06915    -136.8517    31.129848 
   20900   -1726417.2    -45.57251   -11.121021    26.411149    432.13406   -137.07597    31.174576 
   21000   -1726417.2    -45.40818   -11.057288    26.459466    432.19984    -137.3039    31.219086 
   21100   -1726417.3   -45.250986   -10.997599    26.503879    432.26178   -137.51712    31.261355 
   21200   -1726417.3   -45.096924   -10.938139    26.546705    432.32291   -137.72613    31.302677 
   21300   -1726417.3   -44.937566   -10.874613    26.594053    432.38393   -137.94357    31.343675 
   21400   -1726417.3   -44.777181   -10.818277    26.638284    432.44285   -138.15936    31.386771 
   21500   -1726417.3   -44.623432   -10.761953    26.680417    432.49801   -138.36312    31.424987 
   21600   -1726417.3   -44.463753   -10.703226    26.725483    432.55405   -138.57753    31.464888 
   21700   -1726417.3   -44.311931   -10.649482    26.766017     432.6069   -138.78752    31.504698 
   21800   -1726417.4    -44.15616   -10.596865    26.808383    432.66017   -138.99436    31.543124 
   21900   -1726417.4   -43.996134    -10.54244    26.852033    432.71427   -139.20811    31.585554 
   22000   -1726417.4   -43.847504   -10.494846    26.892038    432.76615   -139.40605    31.623585 
   22100   -1726417.4   -43.695273   -10.445051    26.932941    432.82028    -139.6116      31.6624 
   22200   -1726417.4   -43.542917   -10.398652    26.968468    432.87415   -139.81595    31.703501 
   22300   -1726417.4   -43.390912   -10.347374    27.008069    432.92047    -140.0135    31.742458 
   22400   -1726417.4   -43.232361   -10.296893    27.048373     432.9706   -140.21704    31.779647 
   22500   -1726417.5   -43.072846   -10.251992    27.085982    433.02109   -140.42312    31.818057 
   22600   -1726417.5   -42.925001   -10.211301    27.120475    433.06649    -140.6203    31.854039 
   22700   -1726417.5   -42.772191   -10.171376    27.157087    433.11116   -140.81984    31.888643 
   22800   -1726417.5   -42.611838   -10.127789    27.194566    433.15599   -141.02482    31.925244 
   22900   -1726417.5   -42.461532    -10.08781     27.22788    433.19925   -141.22297    31.960441 
   23000   -1726417.5   -42.310706   -10.052022     27.26226    433.23861   -141.42019     31.99471 
   23100   -1726417.5   -42.151241   -10.016175    27.293321    433.28075   -141.62779     32.02986 
   23200   -1726417.6   -42.004839    -9.988307    27.322699     433.3183    -141.8211    32.062849 
   23300   -1726417.6   -41.848979   -9.9587211    27.355063    433.35767   -142.02176    32.096001 
   23400   -1726417.6   -41.700591   -9.9384364    27.385425    433.39222   -142.22127    32.133058 
   23500   -1726417.6    -41.55524   -9.9132301    27.413038    433.42709   -142.41613    32.165036 
   23600   -1726417.6   -41.404147   -9.8883971    27.440746    433.46275   -142.62348    32.199512 
   23700   -1726417.7   -41.267743   -9.8702174    27.463742    433.49526   -142.81303    32.230911 
   23800   -1726417.7   -41.117431   -9.8452623    27.490653    433.52986   -143.01249    32.262811 
   23900   -1726417.7   -40.977212     -9.82308    27.511566    433.56176   -143.20919    32.294896 
   24000   -1726417.7   -40.840155   -9.7986178    27.535823    433.59466   -143.39785    32.324953 
   24100   -1726417.7   -40.697516   -9.7668544    27.559802    433.62939   -143.59696    32.357005 
   24200   -1726417.7   -40.564859   -9.7396121    27.577689    433.66219   -143.77787    32.386364 
   24300   -1726417.8   -40.428372   -9.7023558    27.598856    433.69515    -143.9628    32.416891 
   24400   -1726417.8   -40.292962   -9.6619256     27.61659    433.72945   -144.14805    32.447709 
   24500   -1726417.8   -40.165981   -9.6245161    27.637287    433.76053   -144.32217    32.472872 
   24600   -1726417.8   -40.028901   -9.5782365     27.66015    433.79429   -144.50225    32.499056 
   24700   -1726417.8   -39.903014   -9.5286556    27.682168    433.82864   -144.67462    32.525699 
   24800   -1726417.9   -39.775531   -9.4704537    27.706605    433.86352   -144.84118    32.550593 
   24900   -1726417.9   -39.645798   -9.4094252    27.731809     433.9015   -145.01535    32.574653 
   25000   -1726417.9    -39.52346   -9.3560556    27.754801    433.93686   -145.17786    32.597767 
   25100   -1726417.9   -39.396006   -9.2943917    27.783845    433.97235   -145.34103    32.622155 
   25200   -1726417.9    -39.26825   -9.2355534    27.811267    434.01061   -145.50396    32.646803 
   25300   -1726417.9   -39.148042   -9.1775434    27.841437    434.04584   -145.65701    32.669654 
   25400   -1726417.9   -39.022276   -9.1182616     27.87561     434.0852   -145.81938     32.69295 
   25500     -1726418   -38.906019   -9.0628884    27.904058    434.12424   -145.96886    32.715937 
   25600     -1726418   -38.786843   -9.0053276    27.936186     434.1639    -146.1195    32.737749 
   25700     -1726418   -38.667176   -8.9498686    27.965406    434.20884    -146.2723    32.761138 
   25800     -1726418   -38.553826   -8.8976359    27.997279     434.2479   -146.41667    32.783151 
   25900     -1726418   -38.432237   -8.8428117    28.031743    434.29019   -146.56912    32.805607 
   26000     -1726418   -38.318786   -8.7946984     28.06374    434.33037    -146.7096    32.828705 
   26100     -1726418   -38.201207   -8.7428098     28.09827     434.3708    -146.8537    32.851159 
   26200     -1726418   -38.082043   -8.6941105    28.130602    434.40955   -146.99848    32.874365 
   26300     -1726418   -37.970001   -8.6468922    28.163893    434.44633   -147.13712    32.896722 
   26400     -1726418   -37.854083   -8.5995302    28.199287     434.4859   -147.28296    32.922039 
   26500     -1726418   -37.742705   -8.5580849    28.230255    434.52327   -147.41571    32.942181 
   26600     -1726418   -37.623559   -8.5123804    28.266526    434.56152   -147.55676    32.964846 
   26700   -1726418.1   -37.512708   -8.4715243    28.299963    434.59802   -147.68836    32.986314 
   26800   -1726418.1   -37.399472   -8.4268256    28.336556    434.63738   -147.82285    33.009118 
   26900   -1726418.1   -37.283798   -8.3841912    28.372959    434.67571   -147.95997    33.032972 
   27000   -1726418.1   -37.174909   -8.3420089    28.407296    434.71151   -148.08883    33.054406 
   27100   -1726418.1   -37.061962   -8.2996511    28.440764    434.74693   -148.22208    33.075899 
   27200   -1726418.1   -36.949856   -8.2594911    28.474573    434.78421   -148.35621    33.096772 
   27300   -1726418.1   -36.839788    -8.222009    28.508006    434.82001   -148.48973    33.118717 
   27400   -1726418.1   -36.732755   -8.1835092    28.539709    434.85411   -148.61475    33.138314 
   27500   -1726418.1   -36.622259   -8.1460439    28.572485    434.89113    -148.7431    33.157136 
   27600   -1726418.1   -36.505467   -8.1036526    28.607125    434.92723   -148.87606     33.17627 
   27700   -1726418.1   -36.398677   -8.0659352    28.640707    434.95899    -149.0003    33.194536 
   27800   -1726418.1   -36.284758   -8.0265756    28.674374    434.99372    -149.1259    33.212937 
   27900   -1726418.1   -36.171627   -7.9891666    28.707897    435.02822   -149.25551    33.231488 
   28000   -1726418.1   -36.065562   -7.9558872    28.739108    435.06061   -149.37885    33.249259 
   28100   -1726418.1   -35.955655   -7.9200456    28.771787    435.09251   -149.50356    33.266173 
   28200   -1726418.1    -35.84209   -7.8820759    28.806013    435.12541   -149.63205    33.283313 
   28300   -1726418.1   -35.737453   -7.8496308    28.835685    435.15563   -149.75543    33.300872 
   28400   -1726418.1    -35.63221   -7.8150197    28.867335    435.18539   -149.87513    33.318069 
   28500   -1726418.1   -35.522929   -7.7793482    28.897226     435.2173   -149.99971    33.337078 
   28600   -1726418.1   -35.413763   -7.7462184    28.927874    435.24717   -150.12354    33.354833 
   28700   -1726418.1    -35.30867   -7.7127097    28.956917    435.27571     -150.241    33.371278 
   28800   -1726418.1    -35.20085   -7.6799944    28.987142    435.30461   -150.36295    33.388933 
   28900   -1726418.2   -35.087658   -7.6482941    29.018439    435.33321   -150.48567    33.405877 
   29000   -1726418.2   -34.983941   -7.6157277    29.047298    435.35881   -150.59977    33.420514 
   29100   -1726418.2   -34.876627   -7.5847799    29.077841    435.38696   -150.71821    33.436269 
   29200   -1726418.2   -34.771186   -7.5548591    29.107153    435.41488   -150.83909     33.45119 
   29300   -1726418.2   -34.671816   -7.5256427    29.136512    435.44033   -150.95258    33.467584 
   29400   -1726418.2   -34.568616   -7.4972297    29.162447    435.46673   -151.07053    33.481844 
   29500   -1726418.2   -34.462805   -7.4663548    29.191363     435.4932   -151.19079    33.496129 
   29600   -1726418.2   -34.360654   -7.4419308     29.21916     435.5218   -151.30767    33.510863 
   29700   -1726418.2   -34.258525   -7.4165012    29.246352    435.54701   -151.42017    33.525292 
   29800   -1726418.2   -34.155725   -7.3878711    29.273815    435.57101   -151.53241    33.539328 
   29900   -1726418.2   -34.049218   -7.3594782    29.305888    435.59549   -151.64794    33.554622 
   30000   -1726418.2   -33.944478   -7.3303734    29.333642    435.62094   -151.76011    33.570036 
   30100   -1726418.2    -33.84526   -7.3030479      29.3611    435.64482   -151.86949    33.583213 
   30200   -1726418.2   -33.741861    -7.274328    29.389286    435.66863   -151.98041    33.596488 
   30300   -1726418.2   -33.640887   -7.2499285    29.415969    435.69199   -152.09366    33.610189 
   30400   -1726418.2   -33.545698   -7.2236827    29.441231    435.71567   -152.19939    33.623865 
   30500   -1726418.2   -33.447599   -7.1985447    29.467352    435.73924   -152.30976    33.637027 
   30600   -1726418.2   -33.343043   -7.1744345    29.494695    435.76605   -152.42356    33.650958 
   30700   -1726418.2   -33.252077   -7.1561806    29.517407    435.78852    -152.5283    33.665343 
   30800   -1726418.2   -33.158718   -7.1397955    29.541705    435.80973   -152.63086    33.678009 
   30900   -1726418.2    -33.06184   -7.1208262    29.566292    435.83318   -152.73527    33.691045 
   31000   -1726418.2   -32.961878   -7.1014136    29.590779    435.85503   -152.84259    33.703433 
   31100   -1726418.2    -32.86681   -7.0838328    29.610789    435.87725   -152.94739    33.715312 
   31200   -1726418.2    -32.77427   -7.0617742     29.63451    435.89877   -153.04908    33.727632 
   31300   -1726418.2   -32.676905   -7.0388615    29.658821    435.92157   -153.15347    33.739888 
   31400   -1726418.2   -32.577545    -7.017625    29.682363    435.94327   -153.26043    33.753009 
   31500   -1726418.2   -32.487206   -7.0008562    29.703243    435.96357   -153.36009    33.763929 
   31600   -1726418.2   -32.393073   -6.9836704     29.72651    435.98369   -153.46005    33.774347 
   31700   -1726418.2   -32.296426   -6.9650324    29.748981    436.00487   -153.56461    33.785202 
   31800   -1726418.2    -32.20565   -6.9497436    29.770308    436.02838   -153.66268    33.795174 
   31900   -1726418.2   -32.111955   -6.9350569    29.792661    436.04889   -153.75978    33.804519 
   32000   -1726418.2   -32.018777   -6.9202437    29.815761    436.06862   -153.86128    33.815009 
   32100   -1726418.2   -31.929282   -6.9059387    29.835876    436.08741   -153.95765    33.824179 
   32200   -1726418.2   -31.839584   -6.8907964     29.85899    436.10731    -154.0523    33.833066 
   32300   -1726418.2   -31.747833   -6.8746221    29.879343    436.12736   -154.15108    33.842541 
   32400   -1726418.2   -31.663967   -6.8624216    29.900279    436.14818   -154.24472    33.852618 
   32500   -1726418.2     -31.5769   -6.8458239    29.922891    436.16798   -154.33943    33.863138 
   32600   -1726418.2   -31.486719   -6.8303598    29.944614    436.18763   -154.43687     33.87257 
   32700   -1726418.2   -31.402872   -6.8172567    29.963803    436.20785   -154.52834    33.882016 
   32800   -1726418.2   -31.315619   -6.8017447    29.982473    436.22648    -154.6244    33.891469 
   32900   -1726418.2   -31.229276   -6.7899071    30.002122    436.24552   -154.71748    33.900701 
   33000   -1726418.2   -31.145674   -6.7742546    30.022864    436.26304   -154.80937    33.911098 
   33100   -1726418.2   -31.056398   -6.7604501    30.041157    436.27871   -154.90497    33.920124 
   33200   -1726418.2   -30.975242   -6.7465146     30.06101    436.29633    -154.9924      33.9293 
   33300   -1726418.2   -30.886534   -6.7297889    30.081063    436.31137   -155.08554    33.939084 
   33400   -1726418.3   -30.803014   -6.7174311    30.101525    436.32735   -155.17802    33.948034 
   33500   -1726418.3   -30.719367   -6.7038441    30.120637    436.34239   -155.26529    33.956182 
   33600   -1726418.2   -30.633774   -6.6889784    30.137142     436.3604     -155.356    33.964504 
   33700   -1726418.3   -30.549374   -6.6767837    30.155883    436.37626   -155.44835    33.973832 
   33800   -1726418.3   -30.470604   -6.6643343    30.173724    436.39299   -155.53446    33.981078 
   33900   -1726418.3   -30.385437   -6.6529562    30.191681    436.41011   -155.62577    33.989055 
   34000   -1726418.3   -30.300339   -6.6409052    30.209249    436.42635   -155.71618    33.998406 
   34100   -1726418.3   -30.218618   -6.6289191    30.227044    436.44106     -155.802     34.00721 
   34200   -1726418.3   -30.133116   -6.6163926    30.245564    436.45812    -155.8908    34.015211 
   34300   -1726418.3   -30.050994   -6.6049477    30.262443    436.47198    -155.9778    34.024333 
   34400   -1726418.3   -29.971689   -6.5936569    30.279009    436.48397   -156.06145    34.033097 
   34500   -1726418.3   -29.887013   -6.5812003    30.298511    436.50019   -156.14895    34.042398 
   34600   -1726418.3   -29.806325   -6.5752038    30.315734    436.51588   -156.23313     34.05065 
   34700   -1726418.3   -29.726401   -6.5632837     30.33267    436.53005   -156.31435      34.0592 
   34800   -1726418.3   -29.644385   -6.5536155    30.350471    436.54471   -156.39978    34.067099 
   34900   -1726418.3   -29.563589   -6.5460203    30.366037    436.56037   -156.48553    34.072935 
   35000   -1726418.3   -29.483724   -6.5363157    30.382249    436.57645   -156.56436    34.079063 
   35100   -1726418.3   -29.405271   -6.5266192    30.399435    436.59213   -156.64545    34.085407 
   35200   -1726418.3   -29.325726   -6.5155055    30.417293    436.60779   -156.72923    34.092604 
   35300   -1726418.3   -29.248507    -6.506198    30.433023    436.62342   -156.81247    34.100875 
   35400   -1726418.3    -29.17074    -6.495789    30.450949     436.6368   -156.89002    34.107986 
   35500   -1726418.3   -29.096406   -6.4868603    30.465631    436.65219   -156.96925    34.115373 
   35600   -1726418.3    -29.01558   -6.4792272    30.481403     436.6672   -157.05025    34.121654 
   35700   -1726418.3   -28.943102   -6.4715277    30.497297    436.68085   -157.12619    34.129045 
   35800   -1726418.3   -28.866927   -6.4620265    30.513864    436.69459   -157.20491    34.136844 
   35900   -1726418.3   -28.787837   -6.4539097    30.527847    436.70756   -157.28541     34.14353 
   36000   -1726418.3     -28.7146   -6.4491405    30.540178     436.7204   -157.35989    34.147987 
   36100   -1726418.3   -28.636257   -6.4405148    30.557117     436.7323   -157.43813    34.155471 
   36200   -1726418.3    -28.56082   -6.4343763    30.572187    436.74439   -157.51406    34.160911 
   36300   -1726418.3   -28.487344   -6.4271752    30.586926      436.754   -157.58826     34.16611 
   36400   -1726418.3   -28.411579    -6.418897    30.601575    436.76661   -157.66495    34.171434 
   36500   -1726418.3    -28.33939   -6.4169404    30.613346    436.77746   -157.73721    34.177211 
   36600   -1726418.3   -28.263747   -6.4117015    30.626852    436.78928   -157.80928    34.182674 
   36700   -1726418.3   -28.185187   -6.4066389     30.63859    436.80138    -157.8838     34.18688 
   36800   -1726418.3   -28.109685   -6.4039033    30.651359    436.81614   -157.95919    34.193924 
   36900   -1726418.3   -28.035905   -6.3977019    30.665114    436.82875   -158.03082     34.19881 
   37000   -1726418.3   -27.959117   -6.3918403    30.677523    436.84023   -158.10325    34.203521 
   37100   -1726418.3   -27.884738    -6.384154    30.691099    436.85167   -158.17564    34.207228 
   37200   -1726418.3   -27.805158   -6.3770073    30.705861    436.86285   -158.24953    34.211493 
   37300   -1726418.3   -27.732715   -6.3722939    30.716919    436.87345   -158.31648    34.214895 
   37400   -1726418.3   -27.658299   -6.3656046     30.73018    436.88455   -158.38549    34.217693 
   37500   -1726418.3   -27.579402   -6.3621542    30.742604    436.89498   -158.45581    34.221573 
   37600   -1726418.3   -27.504861   -6.3606884    30.754857    436.90634   -158.52603    34.225427 
   37700   -1726418.3   -27.432935   -6.3577799    30.766902    436.91585   -158.59112     34.22891 
   37800   -1726418.3    -27.35972   -6.3537743    30.779803    436.92778   -158.65949    34.231684 
   37900   -1726418.3   -27.280611   -6.3499951    30.792767    436.93978   -158.72837    34.233912 
   38000   -1726418.3   -27.209622   -6.3454918      30.8049    436.95087   -158.79628    34.236279 
   38100   -1726418.3   -27.137029   -6.3409671    30.818146    436.96161   -158.86088    34.238735 
   38200   -1726418.3   -27.064674   -6.3374311    30.828967    436.97416    -158.9255     34.24213 
   38300   -1726418.2   -26.990497   -6.3350635    30.839699    436.98482    -158.9922    34.244219 
   38400   -1726418.3   -26.918212    -6.333088    30.850697    436.99487   -159.05734    34.247347 
   38500   -1726418.3   -26.849001   -6.3303125    30.862396    437.00593   -159.11926    34.250043 
   38600   -1726418.2   -26.779647   -6.3301747    30.871849     437.0156    -159.1833    34.251809 
   38700   -1726418.2   -26.707212   -6.3263163    30.883245     437.0271   -159.24733    34.253178 
   38800   -1726418.2   -26.633712   -6.3258359     30.89464    437.03629   -159.31332    34.254204 
   38900   -1726418.2   -26.566465   -6.3280173    30.903979    437.04444   -159.37481     34.25471 
   39000   -1726418.2   -26.497317   -6.3248295    30.914146    437.05356     -159.435    34.255658 
   39100   -1726418.2    -26.42742   -6.3224242    30.924926    437.06394   -159.49782     34.25679 
   39200   -1726418.2     -26.3596   -6.3233289    30.933628    437.07412   -159.55987    34.258978 
   39300   -1726418.2   -26.290805    -6.321026    30.943039    437.08336   -159.61784    34.260386 
   39400   -1726418.2   -26.220317    -6.318953     30.95347    437.09443   -159.67856    34.262906 
   39500   -1726418.2    -26.15081   -6.3204923    30.963088    437.10509   -159.73904    34.264627 
   39600   -1726418.2   -26.083207   -6.3195811    30.971962    437.11693    -159.7953    34.266939 
   39700   -1726418.2   -26.014405   -6.3192765    30.981834     437.1305   -159.85241    34.268398 
   39800   -1726418.2   -25.947963   -6.3177936    30.991065    437.14209   -159.90908    34.268912 
   39900   -1726418.2   -25.879563   -6.3135245    31.000806    437.15715    -159.9636    34.270255 
   40000   -1726418.2   -25.811875   -6.3140962    31.010608    437.17316   -160.01723    34.271061 
   40100   -1726418.2   -25.748901   -6.3148399    31.016842    437.18808   -160.07012     34.27309 
   40200   -1726418.2   -25.683642   -6.3159981    31.026158    437.20335   -160.12599    34.274063 
   40300   -1726418.2   -25.621871   -6.3203581    31.036114    437.21997   -160.17874    34.274873 
   40400   -1726418.2   -25.559493   -6.3197949     31.04319    437.23461   -160.23207    34.274994 
   40500   -1726418.2   -25.494595    -6.320847    31.049359    437.25139   -160.28747      34.2749 
   40600   -1726418.2   -25.433542   -6.3229155    31.056658    437.26817   -160.34046    34.274635 
   40700   -1726418.2   -25.369593   -6.3230601    31.064084    437.28557   -160.39238    34.273871 
   40800   -1726418.2   -25.301403   -6.3219439    31.073785    437.30409   -160.44601    34.273053 
   40900   -1726418.2   -25.241144   -6.3230565    31.080286    437.32175   -160.49842     34.27227 
   41000   -1726418.2   -25.176472   -6.3222645    31.089315    437.33868   -160.55069    34.271894 
   41100   -1726418.2   -25.111463   -6.3237147    31.097375    437.35733    -160.6052    34.271985 
   41200   -1726418.2   -25.051733   -6.3248835    31.104876    437.37337   -160.65546     34.27068 
   41300   -1726418.2   -24.989708   -6.3261552    31.111991    437.39037    -160.7071    34.269143 
   41400   -1726418.2   -24.927315   -6.3287809    31.117112    437.41004   -160.75991    34.268549 
   41500   -1726418.2   -24.868134   -6.3292585    31.121952    437.42759   -160.80821    34.268057 
   41600   -1726418.2   -24.802641   -6.3300086    31.126802    437.44811   -160.86112    34.266416 
   41700   -1726418.2   -24.741958   -6.3323927    31.134848    437.46661   -160.91305    34.264305 
   41800   -1726418.2   -24.685438   -6.3336795    31.141068    437.48494   -160.96152    34.263605 
   41900   -1726418.1   -24.627095   -6.3384444    31.145084    437.50484   -161.01177    34.261878 
   42000   -1726418.2   -24.569854   -6.3429997    31.149668    437.52362   -161.06043    34.259696 
   42100   -1726418.1   -24.510663   -6.3431598    31.154609    437.54203   -161.11139    34.258274 
   42200   -1726418.1   -24.455659   -6.3498553    31.157126    437.56205   -161.16096    34.256659 
   42300   -1726418.1   -24.399507   -6.3537098    31.162721    437.57871   -161.20945    34.255533 
   42400   -1726418.1   -24.339643   -6.3592018    31.167682    437.59782   -161.25981    34.252613 
   42500   -1726418.1   -24.284042   -6.3600109    31.173458    437.61465   -161.30587    34.250773 
   42600   -1726418.1   -24.228777   -6.3659895    31.177278      437.634   -161.35577    34.248295 
   42700   -1726418.1   -24.178812   -6.3728449    31.180301    437.65171   -161.40333    34.245665 
   42800   -1726418.1   -24.126977   -6.3761415    31.184085    437.66822   -161.45112    34.242669 
   42900   -1726418.1   -24.074377   -6.3780257    31.188122    437.68742   -161.50149    34.239492 
   43000   -1726418.1   -24.023865   -6.3844236    31.192136    437.70439   -161.54861    34.237046 
   43100   -1726418.1   -23.967555   -6.3889691    31.196956    437.72122   -161.59634    34.233713 
   43200   -1726418.1   -23.911372   -6.3942815    31.201849    437.73748   -161.64623    34.229427 
   43300   -1726418.1   -23.859986   -6.4001967    31.205509    437.75223   -161.69259    34.225069 
   43400   -1726418.1   -23.803956   -6.4043384    31.209483    437.76746   -161.73997    34.223318 
   43500   -1726418.1   -23.747922   -6.4081318    31.215349     437.7836   -161.78962     34.22026 
   43600   -1726418.1   -23.694232   -6.4120228    31.217959    437.79859   -161.83808    34.216886 
   43700   -1726418.1    -23.64244   -6.4153623    31.221494    437.81209   -161.88432    34.215242 
   43800   -1726418.1   -23.590348   -6.4204751    31.224521    437.82638   -161.93104    34.211751 
   43900   -1726418.1    -23.53718   -6.4235481    31.229299    437.84183   -161.97941    34.208285 
   44000   -1726418.1   -23.488103   -6.4330696    31.232317    437.85526    -162.0266    34.206175 
   44100   -1726418.1   -23.438827    -6.439711    31.234953    437.86941   -162.07071     34.20333 
   44200   -1726418.1   -23.390611   -6.4453506     31.23562    437.88355   -162.11706    34.199355 
   44300   -1726418.1   -23.340538   -6.4540026    31.237871    437.90026   -162.16551    34.196441 
   44400   -1726418.1   -23.293889   -6.4608082    31.239675    437.91255   -162.21017    34.193682 
   44500   -1726418.1   -23.244872   -6.4656291    31.242396    437.92553   -162.25736    34.191841 
   44600   -1726418.1   -23.196253   -6.4698488    31.243493    437.93762   -162.30404    34.188493 
   44700   -1726418.1   -23.148903    -6.474767     31.24877    437.94816   -162.34918    34.186159 
   44800   -1726418.1   -23.097906   -6.4815886    31.251683     437.9588   -162.39604    34.182252 
   44900   -1726418.1   -23.049949   -6.4915045    31.254161    437.97034    -162.4392    34.178982 
   45000   -1726418.1   -22.996579   -6.4997494    31.255488    437.98186   -162.48523     34.17589 
   45100   -1726418.1   -22.949011   -6.5089308    31.256825    437.99429   -162.52955    34.172416 
   45200   -1726418.1   -22.901109   -6.5177586     31.25841    438.00548   -162.57382     34.16813 
   45300   -1726418.1   -22.851373   -6.5268165    31.259888    438.01704   -162.61745    34.163561 
   45400   -1726418.1   -22.802497   -6.5343739    31.264457    438.02769   -162.65921    34.160147 
   45500   -1726418.1   -22.750138   -6.5408357    31.266999    438.03711   -162.70313    34.155549 
   45600   -1726418.1   -22.699591   -6.5473454    31.269425    438.04623   -162.74751    34.151007 
   45700   -1726418.1   -22.650666   -6.5549268    31.273677    438.05426   -162.78994    34.146393 
   45800   -1726418.1   -22.599718   -6.5640383     31.27522    438.06134   -162.83426    34.142433 
   45900   -1726418.1   -22.550833   -6.5760515    31.278213    438.06789   -162.87579     34.13652 
   46000   -1726418.1   -22.500289   -6.5849431    31.282009    438.07484   -162.91886    34.131144 
   46100   -1726418.1   -22.452386      -6.5942    31.283969    438.08094   -162.96416    34.126156 
   46200   -1726418.1   -22.403651   -6.6008627    31.286337    438.08749   -163.00702    34.120687 
   46300   -1726418.1   -22.353721    -6.609138    31.288656    438.09299   -163.05029    34.115201 
   46400   -1726418.1   -22.305701   -6.6191641    31.289695    438.09729   -163.09235    34.110103 
   46500   -1726418.1   -22.254635   -6.6273901    31.292209    438.10031   -163.13461    34.104809 
   46600   -1726418.1   -22.205991    -6.637237    31.293694    438.10498   -163.17558    34.099928 
   46700   -1726418.1   -22.157147   -6.6463064    31.297697    438.10709   -163.21667    34.093966 
   46800   -1726418.2   -22.107613   -6.6561973    31.301137    438.11083    -163.2574    34.087516 
   46900   -1726418.1   -22.054808   -6.6638955    31.304563    438.11491    -163.2976    34.080794 
   47000   -1726418.2   -22.004012   -6.6725783     31.30621    438.11603   -163.33918     34.07459 
   47100   -1726418.2   -21.953022   -6.6823805    31.311385    438.11887   -163.37803    34.068279 
   47200   -1726418.2   -21.899617    -6.689982    31.316323    438.12236     -163.419    34.062757 
   47300   -1726418.2   -21.852037   -6.6984228    31.321645    438.12601   -163.45978    34.055156 
   47400   -1726418.2   -21.805174   -6.7092218    31.325533    438.12795   -163.49926    34.049374 
   47500   -1726418.2    -21.75786   -6.7203175    31.325897    438.13025   -163.53477    34.042955 
   47600   -1726418.2   -21.707553   -6.7292567    31.329163     438.1316   -163.57362    34.037224 
   47700   -1726418.2    -21.65922   -6.7371735    31.335064    438.13119   -163.61024    34.030812 
   47800   -1726418.2   -21.608518   -6.7452588     31.34073    438.13111    -163.6492    34.025615 
   47900   -1726418.2   -21.563477    -6.754554    31.346829    438.13178   -163.68577    34.020294 
   48000   -1726418.2   -21.514633   -6.7634955    31.351432    438.13216   -163.72185    34.014269 
   48100   -1726418.2   -21.468649   -6.7728137    31.354034    438.13207    -163.7588    34.007397 
   48200   -1726418.2   -21.419217   -6.7825709    31.357117    438.13137   -163.79492    34.000977 
   48300   -1726418.2   -21.369092   -6.7925786    31.361317    438.13187   -163.83027      33.9928 
   48400   -1726418.2    -21.32011   -6.8024223    31.365894    438.13285   -163.86375    33.986814 
   48500   -1726418.2   -21.267452   -6.8112083    31.369505    438.13198    -163.8988    33.980123 
   48600   -1726418.2    -21.22012   -6.8225001     31.37473    438.13024    -163.9325    33.972019 
   48700   -1726418.2   -21.169981   -6.8311215    31.379708      438.128   -163.96555    33.964723 
   48800   -1726418.2   -21.119294   -6.8394031     31.38415    438.12568   -164.00111    33.958039 
   48900   -1726418.2   -21.070841   -6.8473001    31.388281    438.12306    -164.0338    33.950993 
   49000   -1726418.2   -21.020945   -6.8586865    31.393827    438.11905   -164.06639     33.94275 
   49100   -1726418.2   -20.969756   -6.8676384    31.396976    438.11552   -164.09982    33.934743 
   49200   -1726418.2   -20.921681   -6.8786825      31.3999     438.1105   -164.13259    33.926377 
   49300   -1726418.2   -20.872096   -6.8857292    31.404085    438.10703   -164.16441    33.919365 
   49400   -1726418.2   -20.823198   -6.8956838    31.407274    438.10271   -164.19718     33.91179 
   49500   -1726418.2    -20.77598   -6.9023553    31.411047     438.0984   -164.22895    33.903452 
   49600   -1726418.2   -20.729242   -6.9082395      31.4162    438.09398   -164.25936    33.896697 
   49700   -1726418.2   -20.679116   -6.9164509    31.420846    438.08725   -164.29278    33.889227 
   49800   -1726418.2   -20.633781   -6.9269606    31.425279    438.08285   -164.32174    33.880839 
   49900   -1726418.2   -20.585562   -6.9362076    31.428626    438.07521   -164.35333    33.872455 
   50000   -1726418.2   -20.540405   -6.9457935     31.43206    438.06992   -164.38416    33.866291 
   50100   -1726418.2   -20.495142   -6.9559142    31.434912    438.06194   -164.41409    33.859617 
   50200   -1726418.2   -20.450525   -6.9651301    31.439504    438.05417   -164.44557    33.850955 
   50300   -1726418.2   -20.404873   -6.9733498    31.443282    438.04496   -164.47445    33.845067 
   50400   -1726418.2   -20.360243   -6.9821709    31.447087    438.03653   -164.50493    33.838654 
   50500   -1726418.2    -20.31487   -6.9900895     31.45144    438.02869   -164.53461    33.831923 
   50600   -1726418.2   -20.271949   -7.0016223    31.455756    438.02065   -164.56254     33.82588 
   50700   -1726418.2   -20.227967   -7.0104765    31.461847    438.01162   -164.59033    33.819556 
   50800   -1726418.2     -20.1824   -7.0191855    31.465256    438.00304   -164.61901    33.812552 
   50900   -1726418.2   -20.138932   -7.0271224    31.468196     437.9938   -164.64518    33.805089 
   51000   -1726418.2    -20.09362   -7.0345501    31.471968    437.98328   -164.67266    33.797832 
   51100   -1726418.2   -20.046774   -7.0430667    31.477008    437.97289   -164.70067    33.790235 
   51200   -1726418.2   -20.003628   -7.0490771    31.481878    437.96133   -164.72759    33.782169 
   51300   -1726418.2   -19.957796   -7.0555818    31.487241    437.95149   -164.75389    33.773922 
   51400   -1726418.2   -19.913232   -7.0638952    31.491487    437.93874   -164.78169    33.764853 
   51500   -1726418.2   -19.868337   -7.0713871    31.494961    437.92734   -164.80749    33.756509 
   51600   -1726418.2   -19.825314   -7.0824914    31.499507    437.91449   -164.83438    33.746044 
   51700   -1726418.2   -19.779245   -7.0920788     31.50289    437.90209   -164.85961    33.736029 
   51800   -1726418.2   -19.738962   -7.1032007    31.506812    437.88931   -164.88469    33.727459 
   51900   -1726418.2   -19.696264   -7.1143748    31.509384    437.87814   -164.90886    33.717778 
   52000   -1726418.2    -19.64973   -7.1215381    31.513111    437.86514   -164.93435    33.707728 
   52100   -1726418.2   -19.605533   -7.1277234    31.516886    437.85271   -164.95828    33.698619 
   52200   -1726418.2   -19.564725   -7.1376044    31.518789    437.84007   -164.98277    33.690317 
   52300   -1726418.2   -19.521788   -7.1494329    31.521687    437.82786   -165.00816    33.680956 
   52400   -1726418.3   -19.478431   -7.1555216    31.525744     437.8152   -165.03239    33.671486 
   52500   -1726418.3   -19.436302   -7.1649264    31.529155    437.80207   -165.05636    33.663161 
   52600   -1726418.2    -19.39374   -7.1737957    31.532895    437.78866   -165.07992    33.653271 
   52700   -1726418.3    -19.35255   -7.1846486     31.53824     437.7749   -165.10267    33.644559 
   52800   -1726418.3   -19.310485   -7.1903437    31.542575    437.76096   -165.12469    33.635176 
   52900   -1726418.3   -19.264952   -7.1969615    31.547354    437.74724   -165.14727    33.624864 
   53000   -1726418.3   -19.223016   -7.2048141    31.551161     437.7347   -165.16819    33.615818 
   53100   -1726418.3   -19.179191   -7.2110976    31.556206    437.72075   -165.18877    33.606589 
   53200   -1726418.3   -19.135917    -7.222024    31.560214    437.70593   -165.21054     33.59571 
   53300   -1726418.3   -19.095168   -7.2328134    31.561999    437.69279   -165.23052    33.585495 
   53400   -1726418.3   -19.052496   -7.2408823     31.56706    437.67881   -165.25053    33.574465 
   53500   -1726418.3   -19.007117   -7.2484241     31.57122    437.66278   -165.27242     33.56269 
   53600   -1726418.3   -18.965684   -7.2577175    31.575175    437.64723   -165.29457    33.551194 
   53700   -1726418.3   -18.924014   -7.2655886    31.579706    437.63504   -165.31538    33.541541 
   53800   -1726418.3   -18.882588   -7.2740293    31.583592    437.62017   -165.33575    33.531204 
   53900   -1726418.3   -18.839391   -7.2825092    31.588287    437.60516   -165.35599     33.51981 
   54000   -1726418.3   -18.800254   -7.2906293    31.590997    437.58882   -165.37654    33.507484 
   54100   -1726418.3    -18.76085   -7.2980792     31.59495    437.57483    -165.3955    33.496566 
   54200   -1726418.3    -18.72376   -7.3073238    31.599062    437.55988   -165.41544    33.486109 
   54300   -1726418.3   -18.681182   -7.3156141    31.604948    437.54399   -165.43513    33.474066 
   54400   -1726418.3   -18.640712   -7.3239706    31.607935    437.53015   -165.45372    33.462922 
   54500   -1726418.3   -18.601866   -7.3324316    31.611065     437.5156   -165.47234    33.450672 
   54600   -1726418.3   -18.561766   -7.3419664    31.614582    437.50073   -165.49092    33.440358 
   54700   -1726418.3    -18.52322   -7.3507259    31.618748    437.48655   -165.50793    33.429804 
   54800   -1726418.3   -18.482877   -7.3569628    31.623955    437.47189   -165.52571    33.420145 
   54900   -1726418.3   -18.440847   -7.3618001    31.629004    437.45709   -165.54502    33.410115 
   55000   -1726418.3   -18.401137   -7.3662616    31.632958    437.44326   -165.56296    33.398934 
   55100   -1726418.3   -18.361997   -7.3727518    31.638198      437.429   -165.58035    33.388819 
   55200   -1726418.3   -18.322511     -7.37889    31.640872    437.41444   -165.59892    33.378249 
   55300   -1726418.3    -18.28586   -7.3838203    31.645972    437.39862   -165.61662    33.369034 
   55400   -1726418.3   -18.245819    -7.388264    31.649084     437.3835   -165.63548    33.360679 
   55500   -1726418.3   -18.207646   -7.3954569    31.653371    437.36859   -165.65113    33.351274 
   55600   -1726418.3   -18.170374   -7.4055316     31.65711    437.35345   -165.66856    33.341846 
   55700   -1726418.3   -18.136055   -7.4132613    31.660698    437.33712   -165.68476    33.331491 
   55800   -1726418.3   -18.097332   -7.4202388    31.666187     437.3212   -165.70158    33.320852 
   55900   -1726418.3   -18.060172   -7.4254236    31.671651    437.30448   -165.71792    33.310486 
   56000   -1726418.3   -18.026211   -7.4362205    31.673187    437.28827   -165.73598    33.298983 
   56100   -1726418.3   -17.992239   -7.4429688    31.676167    437.27341   -165.75113    33.290514 
   56200   -1726418.3   -17.955407   -7.4492661    31.679346    437.25768   -165.76751      33.2807 
   56300   -1726418.3    -17.92138   -7.4537031    31.681903    437.24423   -165.78436    33.271699 
   56400   -1726418.3   -17.885613   -7.4582862    31.687247    437.22914   -165.80122    33.260555 
   56500   -1726418.3   -17.849935   -7.4641981    31.692415    437.21407   -165.81969    33.250593 
   56600   -1726418.3   -17.813551   -7.4695099     31.69687    437.19848   -165.83456    33.241318 
   56700   -1726418.3   -17.773847   -7.4763741    31.703835    437.18294   -165.85047    33.229886 
   56800   -1726418.3   -17.740682   -7.4842598    31.707923    437.16911   -165.86456    33.219856 
   56900   -1726418.3   -17.704639   -7.4895911     31.71405    437.15183   -165.88014    33.208251 
   57000   -1726418.3   -17.668378   -7.4974041    31.719088    437.13444   -165.89555    33.196647 
   57100   -1726418.3   -17.633242   -7.5040363    31.723634    437.11678   -165.90995    33.186583 
   57200   -1726418.3   -17.595436   -7.5119753    31.727842     437.0993   -165.92488    33.176708 
   57300   -1726418.3   -17.560054   -7.5178141    31.732508    437.08285   -165.93818     33.16729 
   57400   -1726418.3   -17.525582   -7.5230876    31.738627    437.06584   -165.95199    33.156477 
   57500   -1726418.3   -17.492667   -7.5290019    31.742404    437.04756   -165.96581    33.145044 
   57600   -1726418.3   -17.456808   -7.5334302    31.747843    437.02924   -165.97902    33.135571 
   57700   -1726418.3   -17.421483    -7.540136    31.753082    437.01059   -165.99278    33.125636 
   57800   -1726418.3   -17.388564     -7.54674    31.757807    436.99253   -166.00664    33.116648 
   57900   -1726418.3   -17.351758   -7.5521184    31.760659    436.97528   -166.02128    33.106207 
   58000   -1726418.3   -17.316305   -7.5585202    31.765214    436.95788   -166.03386    33.096375 
   58100   -1726418.3   -17.284243   -7.5634684    31.769263    436.94003   -166.04627    33.087477 
   58200   -1726418.3   -17.247901   -7.5697658    31.774988    436.92225   -166.05834    33.076645 
   58300   -1726418.3   -17.213843   -7.5767284    31.779935     436.9042   -166.07114    33.066588 
   58400   -1726418.3   -17.177165   -7.5825243    31.784743     436.8867    -166.0837    33.054622 
   58500   -1726418.3     -17.1416   -7.5885444    31.789045    436.86793   -166.09616    33.042841 
   58600   -1726418.3   -17.107493   -7.5956358     31.79292    436.85021   -166.10647    33.032209 
   58700   -1726418.3   -17.074609   -7.6039589    31.798521    436.83208   -166.11724    33.019815 
   58800   -1726418.3    -17.04193   -7.6140464    31.804439    436.81554   -166.12787    33.008699 
   58900   -1726418.3   -17.009846   -7.6202329    31.809606    436.79956   -166.13741    32.999346 
   59000   -1726418.3   -16.973919   -7.6277462    31.814981    436.78152   -166.14842    32.988272 
   59100   -1726418.4   -16.942587   -7.6338945    31.821686    436.76354     -166.159    32.978235 
   59200   -1726418.4   -16.910504   -7.6428058     31.82661    436.74666   -166.16958    32.967524 
   59300   -1726418.4   -16.878851    -7.656763    31.830872    436.72832    -166.1805    32.956388 
   59400   -1726418.4   -16.844845   -7.6656583    31.835481    436.71033   -166.19035    32.946427 
   59500   -1726418.4    -16.81004   -7.6753456    31.841003    436.69105   -166.20111    32.936097 
   59600   -1726418.4   -16.777112   -7.6857308    31.845104     436.6711   -166.21182    32.924217 
   59700   -1726418.4   -16.742906   -7.6925159    31.850345     436.6507   -166.22151    32.914679 
   59800   -1726418.4   -16.708658   -7.7000053    31.856109    436.62943   -166.23124    32.904054 
   59900   -1726418.4   -16.673381    -7.709256    31.861938    436.60924   -166.24163    32.892437 
   60000   -1726418.4   -16.643512    -7.717986    31.865814    436.59008   -166.25151    32.882051 
   60100   -1726418.4   -16.610438   -7.7279777    31.871601    436.57209   -166.26125    32.871171 
   60200   -1726418.4   -16.579185   -7.7383397    31.877236    436.55424   -166.27026    32.860349 
   60300   -1726418.4   -16.545478   -7.7448501    31.882931    436.53597   -166.28017    32.850057 
   60400   -1726418.4   -16.514506   -7.7560307    31.888447    436.51549    -166.2898    32.837483 
   60500   -1726418.4    -16.48305   -7.7676611    31.892835    436.49405    -166.2985    32.826313 
   60600   -1726418.4   -16.453337   -7.7788847    31.897753    436.47293   -166.30873    32.814909 
   60700   -1726418.4   -16.420407   -7.7899142    31.902842    436.45177   -166.31775    32.804319 
   60800   -1726418.4   -16.389579    -7.801331    31.907554     436.4317   -166.32756    32.793959 
   60900   -1726418.4   -16.360364   -7.8126055    31.913296    436.41023   -166.33734    32.784098 
   61000   -1726418.4   -16.325942   -7.8217425    31.919492    436.38857   -166.34642    32.773662 
   61100   -1726418.4   -16.295183   -7.8320417    31.924845     436.3677   -166.35542    32.763636 
   61200   -1726418.4   -16.264536   -7.8410772    31.931152    436.34759   -166.36475    32.754581 
   61300   -1726418.4   -16.233645   -7.8514678    31.937375    436.32618   -166.37357     32.74391 
   61400   -1726418.4   -16.205143   -7.8614947     31.94233    436.30689   -166.38279    32.733455 
   61500   -1726418.4   -16.173391   -7.8725836    31.949895    436.28477   -166.39186    32.723877 
   61600   -1726418.4   -16.142007   -7.8858954    31.956901    436.26334   -166.40023    32.714325 
   61700   -1726418.4   -16.108437   -7.8976969    31.961834    436.24256   -166.40991    32.704936 
   61800   -1726418.4   -16.075964   -7.9101807    31.966709    436.22033   -166.41935    32.693657 
   61900   -1726418.4   -16.047712   -7.9229656    31.973195    436.20007   -166.43027    32.682809 
   62000   -1726418.4   -16.017509    -7.942627    31.978363    436.17907   -166.44028    32.672404 
   62100   -1726418.4   -15.992513   -7.9624307    31.984101    436.15801   -166.45061    32.661776 
   62200   -1726418.4   -15.965072   -7.9799278    31.990364    436.13548   -166.46035    32.650416 
   62300   -1726418.4   -15.930864   -7.9974109    31.996338    436.11286   -166.47051    32.641634 
   62400   -1726418.4   -15.904023   -8.0127594    32.000593    436.09204   -166.48035    32.631815 
   62500   -1726418.4   -15.875273   -8.0295486    32.008126    436.06972   -166.49044    32.622218 
   62600   -1726418.4   -15.845125   -8.0468898     32.01345    436.04663   -166.50138    32.613572 
   62700   -1726418.4   -15.818888   -8.0678696    32.018594    436.02543   -166.51149    32.604895 
   62800   -1726418.4    -15.79207   -8.0875069    32.020036    436.00295   -166.52109    32.596696 
   62900   -1726418.4   -15.764145   -8.1120105    32.026976    435.98027   -166.53409    32.589851 
   63000   -1726418.4   -15.737987   -8.1348947    32.030901    435.95737    -166.5449    32.581571 
   63100   -1726418.4     -15.7134   -8.1584885     32.03437    435.93315   -166.55847    32.573086 
   63200   -1726418.4   -15.687179   -8.1821817       32.039    435.90938   -166.57203    32.564697 
   63300   -1726418.4   -15.664307   -8.2083357    32.043349    435.88783   -166.58625    32.559154 
   63400   -1726418.4   -15.642536    -8.235469    32.044334    435.86596   -166.59948     32.55306 
   63500   -1726418.4   -15.617748   -8.2677769    32.046745    435.84157    -166.6152    32.547275 
   63600   -1726418.4   -15.596254    -8.298331    32.048218    435.81727   -166.62969    32.541732 
   63700   -1726418.4    -15.57536   -8.3320361    32.052142    435.79211   -166.64568    32.538587 
   63800   -1726418.4   -15.553002   -8.3683726    32.054534    435.76523   -166.66193    32.534629 
   63900   -1726418.4   -15.532706   -8.4067773    32.057074    435.73906   -166.67721    32.531465 
   64000   -1726418.4   -15.509642   -8.4490151    32.060769    435.71224   -166.69328    32.530801 
   64100   -1726418.5   -15.489242   -8.4913945    32.061224    435.68681   -166.70764     32.52805 
   64200   -1726418.5    -15.46766   -8.5328769     32.06116    435.66311   -166.72256    32.528457 
   64300   -1726418.5   -15.443671   -8.5773963    32.060702    435.63661   -166.73946    32.529486 
   64400   -1726418.5   -15.422868   -8.6193283    32.061715     435.6126   -166.75295    32.529921 
   64500   -1726418.5    -15.39977   -8.6657144    32.062954     435.5876    -166.7667     32.52937 
   64600   -1726418.5   -15.379898   -8.7080531    32.060564    435.56204    -166.7818    32.529767 
   64700   -1726418.5   -15.351991   -8.7540001    32.059813    435.53357   -166.79559     32.52932 
   64800   -1726418.5    -15.32489   -8.7926512    32.058445    435.50661   -166.80938    32.528565 
   64900   -1726418.5   -15.294956   -8.8373237    32.057454    435.48157   -166.82616    32.527605 
   65000   -1726418.5   -15.267336   -8.8825501    32.054419    435.45272   -166.83946    32.524725 
   65100   -1726418.5   -15.236641   -8.9250257    32.052451     435.4199   -166.85318    32.519783 
   65200   -1726418.5   -15.204117   -8.9624284    32.049276    435.38907   -166.86672    32.513424 
   65300   -1726418.6   -15.171012    -9.002531    32.046476    435.35803   -166.87938    32.506735 
   65400   -1726418.6   -15.134791   -9.0356386    32.044565    435.32692    -166.8935    32.500003 
   65500   -1726418.6    -15.09776   -9.0714539    32.043782    435.29422   -166.90739    32.494683 
   65600   -1726418.6   -15.063124   -9.1067814    32.045902    435.26289   -166.92174    32.489334 
   65700   -1726418.6   -15.031893   -9.1371734    32.048266    435.22993   -166.93743    32.485984 
   65800   -1726418.6   -14.999135   -9.1662721    32.046611    435.19853   -166.95088    32.481116 
   65900   -1726418.6   -14.968968   -9.1900075    32.047128    435.17132   -166.96243    32.477793 
   66000   -1726418.6   -14.931688   -9.2135433    32.049409    435.14062   -166.97115    32.475386 
   66100   -1726418.6   -14.902358   -9.2343217    32.050771    435.11094   -166.97932    32.473812 
   66200   -1726418.6   -14.872586   -9.2517748    32.055759    435.08129   -166.98727    32.473185 
   66300   -1726418.6   -14.841124   -9.2634732    32.063403    435.05177   -166.99222    32.473996 
   66400   -1726418.6    -14.80898   -9.2714176    32.071021    435.02172   -166.99921    32.473747 
   66500   -1726418.7   -14.777435   -9.2784585    32.075213     434.9904   -167.00822    32.474751 
   66600   -1726418.7   -14.744821   -9.2852097    32.082711    434.95911   -167.01564    32.475472 
   66700   -1726418.7   -14.713369   -9.2911527    32.089362    434.92685   -167.02327    32.473222 
   66800   -1726418.7   -14.680305   -9.2943807    32.098274    434.89605   -167.03026    32.471909 
   66900   -1726418.7   -14.647067   -9.2926576    32.107045    434.86219   -167.03816    32.470223 
   67000   -1726418.7   -14.615887    -9.290008    32.113403    434.83082   -167.04626    32.467284 
   67100   -1726418.7   -14.581851   -9.2853204    32.120575      434.799   -167.05546    32.463674 
   67200   -1726418.7   -14.548493   -9.2829597    32.128831     434.7654   -167.06451     32.46248 
   67300   -1726418.7   -14.517247   -9.2815829    32.137677    434.72948   -167.07416    32.459937 
   67400   -1726418.7   -14.489261   -9.2792806    32.144522    434.69707   -167.08504    32.457708 
   67500   -1726418.7   -14.455371   -9.2702982    32.155524    434.66342   -167.09456    32.454051 
   67600   -1726418.7   -14.423543    -9.263057    32.166821    434.63161    -167.1046    32.449387 
   67700   -1726418.7    -14.38859   -9.2593548    32.174516    434.59957    -167.1148    32.442907 
   67800   -1726418.7   -14.355182    -9.255265    32.184049    434.56874   -167.12301     32.43797 
   67900   -1726418.7    -14.31723   -9.2468765    32.196935    434.53755   -167.13084    32.432002 
   68000   -1726418.7   -14.283277   -9.2423921    32.208459    434.50885   -167.13887    32.426137 
   68100   -1726418.7   -14.247625   -9.2342248     32.22099    434.48042   -167.14647    32.420655 
   68200   -1726418.7   -14.210387   -9.2267831    32.234375    434.45269     -167.153    32.413373 
   68300   -1726418.7    -14.17319   -9.2179741    32.249804     434.4251   -167.15991    32.405751 
   68400   -1726418.7    -14.14095   -9.2108087    32.262309    434.39833   -167.16735    32.397195 
   68500   -1726418.7   -14.107213   -9.2025675    32.275011    434.37336   -167.17393    32.388712 
   68600   -1726418.7   -14.072063    -9.195615    32.287818    434.34814   -167.17901    32.379598 
   68700   -1726418.7   -14.036999   -9.1870044    32.302996     434.3258   -167.18464    32.370725 
   68800   -1726418.7   -14.003962   -9.1786852    32.317285     434.3019   -167.19065    32.362691 
   68900   -1726418.7   -13.971262   -9.1743223    32.329486    434.27933   -167.19528    32.353434 
   69000   -1726418.7   -13.941551   -9.1708355    32.341753    434.25735   -167.19921    32.344733 
   69100   -1726418.7   -13.907515   -9.1634925    32.356919    434.23362   -167.20265    32.335353 
   69200   -1726418.7   -13.872365    -9.157422    32.370266    434.21033    -167.2062    32.325309 
   69300   -1726418.7   -13.837949   -9.1507412     32.38454    434.18815   -167.20867    32.315717 
   69400   -1726418.7   -13.800474   -9.1451766    32.399025    434.16378   -167.21125    32.304736 
   69500   -1726418.7   -13.764124   -9.1381637    32.413617    434.14352   -167.21268    32.295181 
   69600   -1726418.7   -13.727903   -9.1344806     32.42848    434.12041   -167.21478    32.284587 
   69700   -1726418.7   -13.691089   -9.1320679    32.441123     434.0989   -167.21652    32.275367 
   69800   -1726418.7   -13.655496    -9.126796     32.45593    434.07653   -167.21803    32.264664 
   69900   -1726418.7   -13.618732   -9.1232981    32.469651    434.05384   -167.21902    32.254176 
   70000   -1726418.7   -13.581757   -9.1193093    32.482899    434.03099   -167.21876     32.24431 
   70100   -1726418.7   -13.543256   -9.1141191    32.498016    434.00643   -167.21949    32.235163 
   70200   -1726418.8   -13.507555   -9.1114362    32.513133    433.98348   -167.22028    32.224661 
   70300   -1726418.8   -13.467868   -9.1067006    32.528165    433.95816   -167.22078    32.215489 
   70400   -1726418.8   -13.429653    -9.103921    32.541397    433.93466   -167.22092     32.20544 
   70500   -1726418.8   -13.394245   -9.1010864    32.554914      433.912   -167.22125    32.194481 
   70600   -1726418.8   -13.357553   -9.0962767    32.570324     433.8882   -167.22085    32.184396 
   70700   -1726418.8   -13.319875   -9.0927189    32.584082    433.86443   -167.22044    32.173907 
   70800   -1726418.8   -13.282829   -9.0878351    32.598864    433.84139   -167.21905    32.163453 
   70900   -1726418.8   -13.246964   -9.0847013    32.609912    433.81603   -167.21718    32.154738 
   71000   -1726418.8   -13.209856   -9.0822161    32.622159    433.79131    -167.2162    32.145375 
   71100   -1726418.8   -13.172562   -9.0776945    32.635393    433.76424   -167.21413    32.134933 
   71200   -1726418.8   -13.134352   -9.0738733    32.648261    433.73714   -167.21218    32.123977 
   71300   -1726418.8   -13.096373   -9.0732133    32.660356     433.7107   -167.20915    32.114168 
   71400   -1726418.8   -13.059017   -9.0710728    32.674995    433.68427   -167.20573    32.103668 
   71500   -1726418.8    -13.02112    -9.068308    32.688215    433.65793   -167.20231    32.094878 
   71600   -1726418.8   -12.985139     -9.06667    32.700043    433.62954   -167.19722    32.084992 
   71700   -1726418.8   -12.949644   -9.0651735    32.712891    433.60173   -167.19196    32.075194 
   71800   -1726418.8   -12.915474   -9.0639865    32.722301    433.57394   -167.18796    32.067079 
   71900   -1726418.8   -12.877639    -9.062012    32.733916    433.54814   -167.18427     32.05758 
   72000   -1726418.8   -12.839083   -9.0630688    32.746364    433.52213   -167.18004    32.046889 
   72100   -1726418.8   -12.804673   -9.0645337    32.755938    433.49633   -167.17475    32.037813 
   72200   -1726418.8   -12.768838   -9.0659504    32.768363    433.47204    -167.1703    32.028383 
   72300   -1726418.8   -12.735023   -9.0647429    32.778961    433.44599   -167.16524    32.019946 
   72400   -1726418.8   -12.698594   -9.0631654    32.790989    433.41845   -167.15993    32.011588 
   72500   -1726418.8   -12.665594   -9.0610237    32.802262    433.39315    -167.1537    32.003655 
   72600   -1726418.8   -12.631596   -9.0634834    32.813545    433.36683   -167.14776    31.994004 
   72700   -1726418.8   -12.598993   -9.0634875    32.824712    433.34361   -167.14065    31.985026 
   72800   -1726418.8   -12.564256    -9.062276    32.836641    433.31935   -167.13297     31.97583 
   72900   -1726418.8    -12.52784   -9.0651835    32.849806    433.29562   -167.12593    31.964899 
   73000   -1726418.8    -12.49665   -9.0662035    32.862022    433.27173   -167.11992    31.955077 
   73100   -1726418.8   -12.461463   -9.0691747    32.874194    433.24682   -167.11133    31.944727 
   73200   -1726418.8   -12.429156   -9.0701876    32.885913    433.22241   -167.10357    31.935259 
   73300   -1726418.9   -12.394545    -9.072463    32.898882    433.19743   -167.09571    31.925523 
   73400   -1726418.9   -12.360043   -9.0732747    32.911522    433.17456   -167.08931    31.916044 
   73500   -1726418.9   -12.328192   -9.0701085    32.923389     433.1525   -167.08322    31.907003 
   73600   -1726418.9   -12.298274   -9.0744374    32.936267     433.1303   -167.07658    31.896294 
   73700   -1726418.9   -12.266292   -9.0783671    32.947762    433.10559   -167.06856    31.888436 
   73800   -1726418.9   -12.235844   -9.0821946    32.958148    433.07972   -167.06099    31.882432 
   73900   -1726418.9   -12.205083   -9.0873732    32.968968    433.05328   -167.05406    31.874868 
   74000   -1726418.9   -12.173698   -9.0945696    32.978451    433.02851   -167.04599    31.866985 
   74100   -1726418.9   -12.145667   -9.0999648    32.987746    433.00464   -167.03808    31.859841 
   74200   -1726418.9   -12.112046   -9.1063855    32.998272    432.97969   -167.03134    31.852149 
   74300   -1726418.9   -12.082032   -9.1124988    33.008798    432.95666   -167.02512    31.845251 
   74400   -1726418.9   -12.053126   -9.1196494    33.020261    432.93302   -167.01854    31.838249 
   74500   -1726418.9   -12.024478   -9.1271283    33.028741    432.90877   -167.01113    31.830993 
   74600   -1726418.9   -11.996329   -9.1361518    33.038607    432.88572   -167.00436    31.824146 
   74700   -1726418.9   -11.965379   -9.1402462    33.050908    432.86168   -166.99867    31.817504 
   74800   -1726418.9   -11.934415   -9.1485902    33.063496     432.8392   -166.99079    31.812072 
   74900   -1726418.9   -11.904304   -9.1515996    33.076619    432.81667    -166.9827    31.807946 
   75000   -1726418.9   -11.874276   -9.1550294    33.089967     432.7929   -166.97474    31.804181 
   75100   -1726418.9   -11.843373   -9.1619619    33.102581    432.76791   -166.96588    31.801573 
   75200   -1726418.9   -11.813909   -9.1693167    33.117739    432.74549   -166.95799    31.798836 
   75300   -1726418.9   -11.783423   -9.1772273    33.133427    432.72293   -166.94881    31.797519 
   75400   -1726418.9   -11.755042   -9.1864431    33.150094    432.70066   -166.93957    31.795361 
   75500   -1726418.9   -11.725964   -9.1959941    33.163898    432.67845    -166.9309     31.79622 
   75600   -1726418.9   -11.695785   -9.2030059    33.179713    432.65711   -166.92094    31.796375 
   75700     -1726419   -11.662521   -9.2081957    33.197705    432.63521   -166.91071    31.797835 
   75800     -1726419     -11.6294   -9.2143906    33.217819    432.61349   -166.90093    31.801385 
   75900     -1726419   -11.597896   -9.2203797    33.237377    432.59022   -166.89049    31.805507 
   76000     -1726419   -11.569827   -9.2266367    33.256606    432.56846    -166.8803    31.810649 
   76100     -1726419   -11.541343   -9.2352423    33.279294    432.54747   -166.87007    31.816351 
   76200     -1726419     -11.5123   -9.2428691    33.303583    432.52819   -166.85988    31.823825 
   76300     -1726419     -11.4845   -9.2503147    33.326046    432.50742   -166.85103    31.830997 
   76400     -1726419    -11.45839   -9.2551155    33.349039    432.48616   -166.84155     31.83883 
   76500     -1726419   -11.430264   -9.2632905    33.374598     432.4633   -166.83127     31.84782 
   76600     -1726419   -11.401946   -9.2689069    33.399754    432.44085   -166.82361    31.855666 
   76700     -1726419   -11.372472   -9.2768616    33.424551    432.41669   -166.81291    31.864653 
   76800     -1726419   -11.340073   -9.2862005    33.449628    432.39548   -166.80251    31.873894 
   76900     -1726419   -11.311257   -9.2902082    33.475435    432.37249   -166.79155    31.884094 
   77000     -1726419   -11.284017   -9.2948441    33.496762    432.34911   -166.77899    31.896318 
   77100     -1726419   -11.255458   -9.2977339    33.522444    432.32367    -166.7691    31.907025 
   77200     -1726419   -11.224131   -9.3054508    33.546988    432.29849   -166.76005    31.916728 
   77300   -1726419.1   -11.196232   -9.3159202    33.570889    432.27355   -166.75058    31.927389 
   77400   -1726419.1   -11.170563   -9.3212948    33.593831    432.24932    -166.7424    31.937292 
   77500   -1726419.1    -11.14519   -9.3261688    33.617218    432.22396   -166.73372    31.948032 
   77600   -1726419.1   -11.120892   -9.3329553    33.638801      432.199   -166.72309    31.957684 
[...]
  193800   -1726421.3   0.49280402   -10.860631    32.899618    435.46631   -116.08797    23.449465 
  193900   -1726421.3    0.4913852    -10.86213    32.894184    435.45056   -116.06134    23.445584 
  194000   -1726421.3   0.49089516   -10.862642    32.888358    435.43525   -116.03405    23.441909 
  194100   -1726421.3   0.48775808   -10.863887    32.881792       435.42   -116.00715    23.438393 
  194200   -1726421.3   0.48495354   -10.865223    32.875661    435.40438   -115.98041    23.434443 
  194300   -1726421.3   0.48244543   -10.865246    32.869785     435.3884   -115.95359    23.430409 
  194400   -1726421.3   0.48001663   -10.864905    32.863898      435.373   -115.92682    23.426634 
  194500   -1726421.3   0.47631434   -10.865317    32.857344    435.35771   -115.90076    23.423128 
  194600   -1726421.3   0.47305819   -10.864513    32.850533    435.34236   -115.87414    23.419381 
  194700   -1726421.4   0.46808825    -10.86466     32.84361    435.32701   -115.84829    23.416009 
  194800   -1726421.4   0.46338372   -10.865328    32.837387    435.31107   -115.82157    23.412434 
  194900   -1726421.4   0.46056299   -10.865733    32.831573     435.2952   -115.79524    23.409017 
  195000   -1726421.4   0.45774416   -10.864488    32.825719    435.27958   -115.76935    23.405457 
  195100   -1726421.4   0.45468177   -10.864028    32.819563     435.2636   -115.74312    23.401919 
  195200   -1726421.4   0.45217282   -10.862799    32.813527    435.24829   -115.71683    23.398628 
  195300   -1726421.4   0.44817843   -10.864137    32.806134    435.23314   -115.69155    23.395114 
  195400   -1726421.4   0.44532722   -10.863662    32.799899     435.2174   -115.66556    23.391829 
  195500   -1726421.4   0.44219604   -10.863552    32.793559    435.20126    -115.6398    23.388263 
  195600   -1726421.4   0.43885454   -10.864186    32.787206    435.18498   -115.61407    23.385254 
  195700   -1726421.4   0.43417349   -10.864715     32.78088    435.16965   -115.58787    23.382219 
  195800   -1726421.4   0.43057933   -10.864789    32.774877    435.15399   -115.56259    23.378879 
  195900   -1726421.4   0.42739545   -10.864279    32.768628    435.13827   -115.53673    23.375371 
  196000   -1726421.4   0.42369215   -10.864837    32.762907    435.12263   -115.51038    23.371391 
  196100   -1726421.4   0.42068439   -10.865611    32.756772    435.10706   -115.48464    23.367421 
  196200   -1726421.4   0.41690006    -10.86689    32.750644    435.09184   -115.45927    23.363457 
  196300   -1726421.4   0.41309002   -10.867347    32.743878    435.07588   -115.43379      23.3603 
  196400   -1726421.4   0.40980544   -10.868159    32.737645    435.05979   -115.40834    23.356735 
  196500   -1726421.4   0.40644853   -10.870012    32.731614    435.04447   -115.38241    23.352831 
  196600   -1726421.4   0.40386339   -10.870977    32.725789    435.02893    -115.3568    23.349095 
  196700   -1726421.4   0.40192654   -10.871224    32.719793    435.01356    -115.3315    23.345713 
  196800   -1726421.4   0.39877967   -10.871692    32.713992     434.9981   -115.30618    23.342284 
  196900   -1726421.4   0.39633855   -10.871597     32.70876    434.98309   -115.28046    23.339308 
  197000   -1726421.4   0.39417557   -10.872062    32.702953    434.96746   -115.25506    23.335387 
  197100   -1726421.4   0.39220238   -10.873191    32.697348    434.95243   -115.23009     23.33146 
  197200   -1726421.4   0.38869953   -10.873642    32.689468      434.937   -115.20501    23.329082 
  197300   -1726421.4   0.38576695   -10.873621    32.683785    434.92129   -115.17916    23.325547 
  197400   -1726421.4   0.38349323   -10.874068    32.677415    434.90554   -115.15398    23.321665 
  197500   -1726421.4    0.3794207   -10.875031    32.671226    434.89022   -115.12869    23.318202 
  197600   -1726421.4   0.37707798   -10.874924    32.665339    434.87507   -115.10323    23.314732 
  197700   -1726421.4    0.3738797    -10.87467    32.658757     434.8601   -115.07821    23.311893 
  197800   -1726421.4   0.37041343   -10.873712    32.652678    434.84507   -115.05316    23.308775 
  197900   -1726421.4   0.36749871   -10.872998    32.646949    434.83015   -115.02811    23.305488 
  198000   -1726421.4   0.36404271   -10.871934    32.641892     434.8158   -115.00237    23.302065 
  198100   -1726421.4   0.36056783   -10.870389    32.636496    434.80122    -114.9773     23.29887 
  198200   -1726421.4   0.35828622   -10.869498    32.631225    434.78666   -114.95148    23.296163 
  198300   -1726421.4   0.35639481   -10.869078    32.626051    434.77233   -114.92631    23.293555 
  198400   -1726421.4   0.35318263   -10.868471    32.621308     434.7576   -114.90032    23.290737 
  198500   -1726421.4    0.3503145   -10.868758    32.616011    434.74325   -114.87531    23.287798 
  198600   -1726421.4   0.34642546   -10.869957    32.609848    434.72913   -114.85089    23.285458 
  198700   -1726421.4   0.34291241   -10.869707    32.603677    434.71479   -114.82579    23.282222 
  198800   -1726421.4   0.33935053   -10.868981    32.598007    434.70102   -114.80058    23.279298 
  198900   -1726421.4   0.33511887   -10.869274    32.592606    434.68733   -114.77555    23.276537 
  199000   -1726421.4   0.33203226   -10.868633    32.586306    434.67286   -114.75056    23.273775 
  199100   -1726421.4   0.32827949   -10.868133    32.580642    434.65825   -114.72529    23.270522 
  199200   -1726421.4   0.32459364   -10.867013    32.575019    434.64361   -114.70023    23.267238 
  199300   -1726421.4   0.32075116   -10.865983    32.568677    434.62892   -114.67458    23.263783 
  199400   -1726421.4   0.31783602   -10.865966    32.562474    434.61421   -114.65001    23.260488 
  199500   -1726421.4   0.31448404   -10.865264    32.556687     434.5998   -114.62511    23.256996 
  199600   -1726421.4   0.31127472   -10.864691    32.550766    434.58513   -114.59959     23.25315 
  199700   -1726421.4   0.30827302   -10.865111    32.544979    434.57022   -114.57447    23.249275 
  199800   -1726421.4   0.30489071   -10.866461    32.539235    434.55561   -114.55004    23.246112 
  199900   -1726421.4   0.30075588   -10.867325    32.533269    434.54109   -114.52499    23.242456 
  200000   -1726421.4   0.29720029   -10.868137    32.526777     434.5266    -114.5004    23.239574 
  200100   -1726421.4   0.29359457   -10.869801    32.521049    434.51223   -114.47618     23.23641 
  200200   -1726421.4    0.2906921   -10.870065    32.514868    434.49731   -114.45177    23.233415 
  200300   -1726421.4   0.28747911    -10.87021     32.50924    434.48217    -114.4272    23.230092 
  200400   -1726421.4   0.28397349   -10.870777    32.503401    434.46722   -114.40222    23.226507 
  200500   -1726421.4   0.27938421   -10.871718    32.497278    434.45251   -114.37785    23.223628 
  200600   -1726421.4   0.27541988    -10.87178    32.491571    434.43688   -114.35329    23.220431 
  200700   -1726421.4   0.27145201   -10.872278    32.485248    434.42214   -114.32901    23.218218 
  200800   -1726421.4   0.26684287   -10.872047    32.479503    434.40674   -114.30426    23.214812 
  200900   -1726421.4   0.26353539   -10.871749    32.473714    434.39153   -114.27981    23.211714 
  201000   -1726421.4   0.25873645    -10.87285    32.468242    434.37584   -114.25583    23.208971 
  201100   -1726421.4    0.2558082   -10.872142    32.462519    434.36061   -114.23142    23.206052 
  201200   -1726421.4   0.25163103    -10.87098    32.456482    434.34564     -114.207    23.202763 
  201300   -1726421.4   0.24783262   -10.871426    32.450658    434.32996   -114.18273    23.199448 
  201400   -1726421.4   0.24434748    -10.87121    32.444867    434.31451   -114.15857    23.196155 
  201500   -1726421.4   0.24066364   -10.872449    32.438786    434.29924   -114.13396    23.192611 
  201600   -1726421.4   0.23730255   -10.871976    32.432209    434.28396   -114.10954       23.189 
  201700   -1726421.4   0.23346373   -10.872681    32.425302    434.26922   -114.08463    23.185184 
  201800   -1726421.4   0.22905094   -10.872741     32.41901    434.25494   -114.05993    23.181411 
  201900   -1726421.4   0.22433605   -10.873997    32.412192    434.24028   -114.03525    23.178361 
  202000   -1726421.4   0.22010395   -10.874027    32.406761    434.22558   -114.01075    23.175803 
  202100   -1726421.4   0.21682103   -10.875337    32.400254    434.21114   -113.98649    23.172466 
  202200   -1726421.4   0.21377371   -10.876423    32.393731    434.19737    -113.9626    23.169833 
  202300   -1726421.5   0.20957172   -10.875335    32.387755    434.18279   -113.93847    23.167116 
  202400   -1726421.5   0.20536813   -10.875885    32.380961    434.16862   -113.91354     23.16379 
  202500   -1726421.5   0.20299804   -10.874986    32.375098    434.15444   -113.88943    23.160796 
  202600   -1726421.5   0.20026196   -10.874342    32.369385    434.13936    -113.8653    23.157856 
  202700   -1726421.5     0.197303   -10.873284    32.363529    434.12488   -113.84101    23.155456 
  202800   -1726421.5   0.19396263   -10.873096    32.358153    434.11045   -113.81691    23.152124 
  202900   -1726421.5   0.19041831   -10.872915    32.351944     434.0962   -113.79243    23.148821 
  203000   -1726421.5   0.18727034   -10.871543    32.346301    434.08187   -113.76811    23.146002 
  203100   -1726421.5     0.182992   -10.871661    32.340365     434.0674   -113.74397    23.142677 
  203200   -1726421.5   0.17958032   -10.871234    32.334632    434.05271   -113.71961    23.139791 
  203300   -1726421.5   0.17565356   -10.871653    32.328715    434.03769   -113.69569    23.136876 
  203400   -1726421.5   0.17238624   -10.871513    32.322781    434.02219   -113.67174    23.134051 
  203500   -1726421.5   0.16873329   -10.871371    32.317042    434.00698   -113.64795    23.131161 
  203600   -1726421.5   0.16520998   -10.871747    32.311783    433.99164    -113.6243    23.128338 
  203700   -1726421.5   0.16247139    -10.87152    32.306229    433.97627   -113.60029    23.124931 
  203800   -1726421.5   0.15927375   -10.870598    32.300588    433.96091   -113.57636    23.121861 
  203900   -1726421.5   0.15558277   -10.871068    32.295089    433.94669   -113.55336    23.119232 
  204000   -1726421.5   0.15289451   -10.870812    32.288502    433.93235   -113.52888    23.116074 
  204100   -1726421.5   0.14998078   -10.870024    32.281927    433.91784   -113.50488    23.113362 
  204200   -1726421.5   0.14693919   -10.869721    32.275166    433.90338   -113.48055    23.109732 
  204300   -1726421.5   0.14259094    -10.87017    32.269246    433.88895   -113.45667    23.106331 
  204400   -1726421.5   0.13857347   -10.870512    32.263377    433.87422   -113.43302    23.103242 
  204500   -1726421.5   0.13434361   -10.870119    32.257821    433.85902   -113.40956    23.100561 
  204600   -1726421.5   0.13031013   -10.869955    32.251628    433.84367   -113.38552    23.098153 
  204700   -1726421.5   0.12765248   -10.869682    32.245956    433.82831   -113.36175     23.09516 
  204800   -1726421.5   0.12430954   -10.868706    32.239225    433.81407   -113.33793    23.092388 
  204900   -1726421.5   0.12094473   -10.868561    32.233347    433.79878   -113.31426     23.08941 
  205000   -1726421.5   0.11687793   -10.868578    32.227587     433.7837   -113.29049     23.08632 
  205100   -1726421.5   0.11409009   -10.868179    32.222346    433.76775   -113.26683     23.08316 
  205200   -1726421.5   0.11128974   -10.867345    32.218123    433.75255   -113.24321    23.079935 
  205300   -1726421.5   0.10760514   -10.866856    32.212609    433.73764   -113.21958    23.077557 
  205400   -1726421.5   0.10501693   -10.865743      32.2071    433.72224   -113.19584    23.074145 
  205500   -1726421.5   0.10149247   -10.865372    32.200902    433.70684   -113.17247    23.071262 
  205600   -1726421.5  0.097693336   -10.865785    32.194256    433.69201   -113.14824    23.067846 
  205700   -1726421.5  0.094498704     -10.8654    32.188739    433.67661   -113.12481    23.064819 
  205800   -1726421.5  0.091291001   -10.864172    32.183289    433.66103   -113.10133    23.062174 
  205900   -1726421.5  0.087608387   -10.864327    32.176748    433.64556   -113.07793    23.059365 
  206000   -1726421.5   0.08458111   -10.863137    32.171577    433.63005   -113.05458    23.057658 
  206100   -1726421.5  0.080936687   -10.862388    32.165869    433.61435   -113.03148    23.055059 
  206200   -1726421.5  0.077651827   -10.862689    32.160353    433.59895   -113.00799      23.0521 
  206300   -1726421.5  0.074153091   -10.862525    32.154466    433.58358   -112.98431    23.048954 
  206400   -1726421.5  0.070928545   -10.861991    32.148729    433.56769   -112.96089    23.045971 
  206500   -1726421.5  0.068023184   -10.860763    32.141988    433.55259   -112.93678    23.043037 
  206600   -1726421.5  0.065122355   -10.860035    32.136311    433.53706   -112.91446    23.040461 
  206700   -1726421.5  0.063515471   -10.859595     32.13071    433.52128   -112.89136    23.037734 
  206800   -1726421.5  0.060425088   -10.859162    32.124929    433.50518   -112.86822    23.034767 
  206900   -1726421.5  0.057290606    -10.85872     32.11917    433.48903    -112.8453    23.031864 
  207000   -1726421.5  0.054054252   -10.859087    32.112776    433.47302   -112.82318    23.029125 
  207100   -1726421.5  0.051406437   -10.858687    32.106992    433.45672   -112.80034    23.026324 
  207200   -1726421.5  0.047928261   -10.858665    32.101083      433.441   -112.77768    23.023621 
  207300   -1726421.5  0.044770841   -10.857984    32.095222    433.42518   -112.75466    23.020525 
  207400   -1726421.5  0.042852957   -10.857348    32.089745    433.40985   -112.73212    23.016983 
  207500   -1726421.5  0.040032243   -10.856986    32.084013    433.39385   -112.70929    23.013945 
  207600   -1726421.5  0.037075231   -10.857511    32.077775    433.37736    -112.6867    23.010972 
  207700   -1726421.5   0.03329224   -10.856956    32.072079    433.36099   -112.66386    23.008048 
  207800   -1726421.5  0.029921028   -10.857813    32.065674    433.34527   -112.64142    23.004833 
  207900   -1726421.5  0.027031831   -10.856948    32.059939    433.32955   -112.61844    23.002219 
  208000   -1726421.5  0.022971582   -10.856925    32.054437    433.31393   -112.59531    22.999657 
  208100   -1726421.5   0.01991176   -10.855919    32.048425    433.29807   -112.57245    22.996776 
  208200   -1726421.5  0.017784036     -10.8552     32.04257    433.28227   -112.54962    22.994126 
  208300   -1726421.5  0.014520739   -10.855151    32.035573    433.26617   -112.52652    22.990739 
  208400   -1726421.5   0.01152806   -10.855477    32.029452    433.25042   -112.50379    22.987501 
  208500   -1726421.5 0.0076321453     -10.8552    32.023478    433.23428   -112.48105    22.984435 
  208600   -1726421.5 0.0045146365   -10.855667    32.017526    433.21799   -112.45839    22.981495 
  208700   -1726421.5 0.0014871219   -10.855147    32.011737    433.20174   -112.43596    22.978637 
  208800   -1726421.5 -0.0020187747   -10.854676    32.006028    433.18576   -112.41346     22.97571 
  208900   -1726421.5 -0.005309482   -10.853089    31.999526     433.1693   -112.39085    22.972651 
  209000   -1726421.5  -0.00827093   -10.851837    31.993711    433.15335   -112.36835    22.969783 
  209100   -1726421.5 -0.011451674   -10.850965    31.987938    433.13694   -112.34603    22.967003 
  209200   -1726421.5 -0.014127106   -10.849964    31.982116    433.12025   -112.32391    22.964297 
  209300   -1726421.5 -0.016348978   -10.848098    31.976428    433.10431   -112.30148    22.961203 
  209400   -1726421.5 -0.020299957   -10.847949    31.970094    433.08737   -112.27966     22.95873 
  209500   -1726421.5 -0.023892021   -10.847421    31.963663    433.07081   -112.25771    22.956683 
  209600   -1726421.5 -0.026452619   -10.846551    31.957751    433.05461   -112.23565    22.954219 
  209700   -1726421.5 -0.030300113   -10.847561    31.951672    433.03901   -112.21443    22.952017 
  209800   -1726421.5 -0.033802762   -10.847476     31.94635    433.02304    -112.1927     22.94932 
  209900   -1726421.6 -0.035095071   -10.846184    31.940812    433.00637   -112.17067     22.94642 
  210000   -1726421.6  -0.03862986   -10.846771    31.935127    432.99037   -112.14925    22.944319 
  210100   -1726421.6 -0.041521221   -10.846907    31.928834    432.97455   -112.12765    22.942484 
  210200   -1726421.6 -0.044332799    -10.84698    31.922341    432.95918   -112.10523    22.939329 
  210300   -1726421.6 -0.046288104   -10.847303    31.916545    432.94402   -112.08318    22.936464 
  210400   -1726421.6 -0.048792574   -10.846886    31.911199    432.92795   -112.06083    22.934431 
  210500   -1726421.6 -0.051899828   -10.846566    31.905445    432.91206   -112.03928    22.932385 
  210600   -1726421.6 -0.054845205   -10.845989    31.900078    432.89583   -112.01736    22.929922 
  210700   -1726421.6 -0.056570745   -10.844948    31.894866    432.88014   -111.99541    22.927212 
  210800   -1726421.6 -0.059587664    -10.84416    31.889488    432.86372   -111.97338    22.924663 
  210900   -1726421.6 -0.062569831   -10.843411    31.884162    432.84733   -111.95153    22.922162 
  211000   -1726421.6 -0.066706325   -10.841577    31.879033    432.83202   -111.92947    22.920007 
  211100   -1726421.6 -0.069665605   -10.840368    31.873858    432.81554   -111.90752    22.917655 
  211200   -1726421.6 -0.073072389   -10.839238    31.868911    432.79902   -111.88529    22.916036 
  211300   -1726421.6 -0.075855703    -10.83789    31.863844    432.78275   -111.86319    22.914071 
  211400   -1726421.6 -0.079128705   -10.836356    31.859173    432.76638   -111.84137    22.911833 
  211500   -1726421.6 -0.082552942   -10.834886    31.853833    432.74996    -111.8193    22.909655 
  211600   -1726421.6 -0.086221297   -10.834687    31.848205    432.73368   -111.79746    22.907314 
  211700   -1726421.6 -0.089472099   -10.834036    31.842934    432.71662    -111.7756    22.904902 
  211800   -1726421.6 -0.092647714    -10.83251    31.836924    432.69981   -111.75399    22.902803 
  211900   -1726421.6 -0.095792073    -10.83114    31.830843    432.68373   -111.73256     22.90077 
  212000   -1726421.6 -0.099321264   -10.830422    31.825349    432.66794   -111.71086    22.898392 
  212100   -1726421.6  -0.10075507    -10.83014    31.819945    432.65177   -111.68888    22.896148 
  212200   -1726421.6  -0.10390102   -10.829615    31.814367    432.63509   -111.66723     22.89355 
  212300   -1726421.6  -0.10697542   -10.828984    31.808883    432.61842   -111.64585     22.89105 
  212400   -1726421.6  -0.11036636   -10.828951    31.802898    432.60298   -111.62363    22.888073 
  212500   -1726421.6   -0.1141254   -10.829727    31.796728    432.58643   -111.60203     22.88517 
  212600   -1726421.6  -0.11591937   -10.828647    31.791596    432.57111   -111.58001    22.883224 
  212700   -1726421.6  -0.11896589   -10.827496    31.786718    432.55459   -111.55852    22.881109 
  212800   -1726421.6  -0.12312374    -10.82707    31.781701    432.53813   -111.53713    22.878844 
  212900   -1726421.6  -0.12636709   -10.826038    31.776525    432.52135   -111.51566    22.876581 
  213000   -1726421.6  -0.12979326   -10.825714     31.77053    432.50493   -111.49403    22.873984 
  213100   -1726421.6  -0.13320499    -10.82496    31.765066     432.4883   -111.47257    22.871659 
  213200   -1726421.6   -0.1363884   -10.824126    31.759414    432.47137   -111.45153     22.86912 
  213300   -1726421.6  -0.14020505   -10.824581    31.754052    432.45476    -111.4304    22.866882 
  213400   -1726421.6  -0.14407248   -10.824173    31.748243    432.43893   -111.41013    22.864989 
  213500   -1726