LAMMPS (22 Aug 2018)
Processor partition = 1
# NEB for Au triple junction
# Yin Zhang
# March 25th, 2019

units			metal
boundary		p p p

atom_style		atomic
atom_modify		map array sort 0 0


read_data		init.in
  orthogonal box = (0 0 0) to (170 170 379.205)
  1 by 1 by 1 MPI processor grid
  reading atoms ...
  443580 atoms
pair_style		eam
pair_coeff		* * /home/yzhang951/Au_Al/Au_u3.eam
Reading potential file /home/yzhang951/Au_Al/Au_u3.eam with DATE: 2007-06-11

thermo			100
thermo_style	custom step etotal pxx pyy pzz pxy pyz pxz

variable		u equal part

dump			1 all cfg 1000 Au*_$u.cfg mass type xs ys zs
dump			1 all cfg 1000 Au*_1.cfg mass type xs ys zs
dump_modify		1 element Au sort id

fix				1 all neb 100
min_style		quickmin

neb				0 0.01 1000000 1000000 100 final final.in
WARNING: Using 'neigh_modify every 1 delay 0 check yes' setting during minimization (../min.cpp:168)
Neighbor list info ...
  update every 1 steps, delay 0 steps, check yes
  max neighbors/atom: 2000, page size: 100000
  master list distance cutoff = 7.55
  ghost atom cutoff = 7.55
  binsize = 3.775, bins = 46 46 101
  1 neighbor lists, perpetual/occasional/extra = 1 0 0
  (1) pair eam, perpetual
      attributes: half, newton on
      pair build: half/bin/atomonly/newton
      stencil: half/bin/3d/newton
      bin: standard
Per MPI rank memory allocation (min/avg/max) = 232.7 | 232.7 | 232.7 Mbytes
Step TotEng Pxx Pyy Pzz Pxy Pyz Pxz 
       0   -1725863.2    274.21338    387.28889     310.8001    133.42365   -43.560081    21.017749 
     100   -1726352.6    33.406713    51.305727    49.874085     103.9393    -28.80937    9.3415379 
     200   -1726384.9    16.200518    18.134258    32.443236    105.15415   -25.939641    4.9333529 
     300   -1726397.2    7.0818673    2.1188661    25.563815    110.57409   -24.798377    1.9725393 
     400   -1726408.2   0.96698975   -6.6827703    21.852557     116.2083   -24.484357   0.34318866 
     500   -1726410.6   -2.7748231   -11.849412    19.843679    121.58418   -24.482126  -0.91238702 
     600   -1726412.1   -5.6931828   -15.589074    18.384677    126.79917     -24.6505   -1.9106016 
     700   -1726415.2   -8.0369225   -18.232782    17.225891    131.11564   -24.860322   -2.4425299 
     800   -1726415.8   -9.7507823   -20.124444    16.395461     135.2225   -25.137966   -2.9016587 
     900   -1726417.4    -11.33773   -21.685734    15.574416    139.14372   -25.474232   -3.1788868 
    1000   -1726417.8   -12.455139   -22.761024    14.999408    142.49304   -25.791491   -3.3754613 
    1100   -1726418.2   -13.435677   -23.649423    14.495639    145.77502   -26.129673   -3.5195791 
    1200   -1726419.2   -14.388158   -24.454646    13.990564    148.90991   -26.487596   -3.5570817 
    1300   -1726419.5   -15.071917    -25.05056    13.608447    151.63164   -26.811052   -3.5867015 
    1400   -1726419.7   -15.687697   -25.580971    13.244147    154.32131   -27.163609   -3.5843463 
    1500   -1726420.3   -16.302919   -26.083569    12.879852    156.90427   -27.523661   -3.5250504 
    1600   -1726420.5   -16.786719   -26.481568    12.587823    159.23766   -27.862657     -3.47004 
    1700   -1726420.7   -17.258933   -26.848331    12.307417    161.57902   -28.222902   -3.3810034 
    1800   -1726421.2   -17.752914   -27.210744    12.009469    163.82907   -28.585816   -3.2582544 
    1900   -1726421.4   -18.133803   -27.490962    11.769479    165.80912   -28.920894   -3.1486682 
    2000   -1726421.5   -18.503481   -27.761025    11.529063    167.81642   -29.278515   -3.0289384 
    2100   -1726421.7   -18.869488   -28.025159    11.298544    169.79351   -29.642012    -2.901845 
    2200   -1726422.1   -19.213236   -28.276436    11.066788    171.52979   -29.972841   -2.7596417 
    2300   -1726422.2   -19.509409   -28.488719    10.866168    173.26153   -30.318024   -2.6249707 
    2400   -1726422.5   -19.823854   -28.689856    10.649249    174.99979   -30.681186   -2.4762463 
    2500   -1726422.7    -20.09675   -28.866723     10.45549    176.52949   -31.011452   -2.3367425 
    2600   -1726422.8   -20.352516   -29.038349    10.266553    178.07318   -31.356683   -2.1989402 
    2700   -1726422.9   -20.594998   -29.186006    10.071048     179.6229   -31.720007   -2.0481213 
    2800   -1726423.2   -20.836005   -29.327914    9.8732289    181.01296   -32.060824   -1.8955368 
    2900   -1726423.3   -21.029832   -29.448243    9.6984741    182.36988   -32.403407   -1.7571105 
    3000   -1726423.4   -21.209409   -29.566305    9.5209127    183.73586   -32.759714   -1.6160981 
    3100   -1726423.6   -21.392996   -29.680241    9.3396309    185.00755   -33.099703   -1.4686958 
    3200   -1726423.7   -21.531853   -29.772671     9.184482    186.23314   -33.433215   -1.3368242 
    3300   -1726423.8   -21.661803   -29.844139    9.0267858    187.48386   -33.786608   -1.2001993 
    3400     -1726424   -21.796444   -29.917656    8.8687765    188.63189    -34.11866   -1.0583645 
    3500   -1726424.1   -21.894726   -29.968714    8.7281653    189.74369   -34.448006  -0.92900436 
    3600   -1726424.1   -21.980008   -30.014783    8.5858348    190.87205   -34.795977  -0.79510175 
    3700   -1726424.3   -22.056638   -30.050115    8.4472993    191.90716   -35.123812  -0.66556177 
    3800   -1726424.4   -22.111596   -30.069859       8.3225    192.92465    -35.45001  -0.53760713 
    3900   -1726424.4   -22.156095   -30.087903    8.1954872    193.96153   -35.787286  -0.40385678 
    4000   -1726424.6   -22.212306   -30.105705    8.0619688    194.90728   -36.104918  -0.27426957 
    4100   -1726424.7   -22.237022   -30.110203     7.943685     195.8292   -36.428405  -0.14408126 
    4200   -1726424.7   -22.257989   -30.106318    7.8244226    196.76113   -36.759341 -0.013668293 
    4300   -1726424.9   -22.287003   -30.107204     7.701344    197.65357   -37.084597   0.12016225 
    4400     -1726425   -22.294458   -30.091811    7.5959163    198.48534   -37.393465   0.24214006 
    4500     -1726425   -22.291564   -30.068568    7.4974658    199.32652   -37.709622   0.36747279 
    4600   -1726425.2   -22.289224   -30.036172     7.399449    200.14742   -38.025149   0.49384926 
    4700   -1726425.2   -22.269683   -29.997674    7.3130723    200.91496   -38.328609   0.60776445 
    4800   -1726425.3    -22.24139   -29.948003    7.2302938    201.67893   -38.640247   0.72179152 
    4900   -1726425.4   -22.225295   -29.900818    7.1393635    202.44751   -38.962373    0.8418283 
    5000   -1726425.4   -22.195488   -29.843018    7.0693523    203.14675   -39.255992   0.94659023 
    5100   -1726425.5   -22.162557   -29.775026    6.9998605    203.86044   -39.564673    1.0555176 
    5200   -1726425.5   -22.129439   -29.709294    6.9254552    204.57593   -39.881654     1.166482 
    5300   -1726425.7   -22.095889   -29.644351    6.8580377    205.24127    -40.18034     1.276971 
    5400   -1726425.7   -22.041966   -29.571591    6.7995679    205.89103   -40.476772    1.3822037 
    5500   -1726425.7   -21.980421   -29.490983    6.7449508    206.55938   -40.786171    1.4950812 
    5600   -1726425.9   -21.926772    -29.41304     6.693197     207.1596   -41.070864     1.599892 
    5700   -1726425.9   -21.853126   -29.320339    6.6490812    207.77465   -41.364808    1.7020821 
    5800     -1726426   -21.790298   -29.229156    6.6029252    208.38425   -41.662057    1.8047912 
    5900     -1726426   -21.719756   -29.130586    6.5600088     208.9479   -41.948383    1.9038404 
    6000   -1726426.1   -21.647961   -29.026683    6.5172673    209.51667   -42.241435    2.0040635 
    6100   -1726426.1   -21.573668   -28.916186    6.4810582    210.08457   -42.545533    2.1054807 
    6200   -1726426.2   -21.507206   -28.814901    6.4423955    210.60302   -42.827196      2.20294 
    6300   -1726426.3   -21.428279   -28.698256    6.4145835    211.10434   -43.108521    2.2946928 
    6400   -1726426.3   -21.338017   -28.575527    6.3911484    211.60796   -43.394612    2.3907459 
    6500   -1726426.4     -21.2617   -28.449156    6.3671017    212.09077   -43.678374    2.4895161 
    6600   -1726426.4   -21.177799   -28.327243    6.3444036    212.53772   -43.953332    2.5777966 
    6700   -1726426.4   -21.087503   -28.196303    6.3257582    212.99502   -44.237956    2.6689428 
    6800   -1726426.5   -21.003991   -28.060676    6.3086172    213.43395   -44.517138    2.7600441 
    6900   -1726426.6    -20.91564   -27.926663    6.3017078     213.8502    -44.78538    2.8471556 
    7000   -1726426.6   -20.818816   -27.776504    6.2969911     214.2713   -45.068519    2.9334967 
    7100   -1726426.7   -20.724366   -27.621787    6.2932367    214.67469   -45.347474     3.019268 
    7200   -1726426.7   -20.628388   -27.468717    6.2963603    215.05234   -45.612966    3.0938017 
    7300   -1726426.7    -20.53208   -27.304006    6.3027296    215.43234   -45.889992    3.1750249 
    7400   -1726426.8   -20.440827    -27.13729    6.3036111    215.81057   -46.172526    3.2569424 
    7500   -1726426.9   -20.352928   -26.983718     6.304716    216.14954   -46.430914    3.3332053 
    7600   -1726426.9    -20.25727    -26.82518    6.3097072    216.48182   -46.691746     3.406391 
    7700   -1726426.9   -20.154652   -26.656061    6.3183906    216.81377   -46.964051    3.4788942 
    7800     -1726427   -20.050936   -26.491419     6.324182    217.12862   -47.234207    3.5548655 
    7900     -1726427   -19.945577   -26.326516    6.3412839    217.41555   -47.489138    3.6234895 
    8000     -1726427   -19.837024   -26.161553    6.3578806    217.70598   -47.752464    3.6918742 
    8100   -1726427.1    -19.72654   -25.986493    6.3743089    217.99131   -48.019023    3.7630347 
    8200   -1726427.1   -19.621036   -25.821688    6.3936978    218.25267   -48.271229    3.8268506 
    8300   -1726427.2   -19.507822   -25.651534    6.4167328    218.51369   -48.534905    3.8918024 
    8400   -1726427.2   -19.387488   -25.473057    6.4427873    218.77191   -48.806167    3.9555107 
    8500   -1726427.3    -19.27363   -25.302717    6.4650209     219.0113   -49.067104    4.0202635 
    8600   -1726427.3   -19.167918   -25.139367    6.4908267    219.23043   -49.313688    4.0781086 
    8700   -1726427.3   -19.056468   -24.975407    6.5179479    219.44955   -49.563637    4.1360528 
    8800   -1726427.3   -18.940335   -24.806108    6.5419155    219.66701    -49.82318    4.1950743 
    8900   -1726427.4   -18.832827   -24.643501    6.5679096     219.8769   -50.078495    4.2559526 
    9000   -1726427.4   -18.726671   -24.490173    6.5979818     220.0694    -50.31398      4.31016 
    9100   -1726427.4   -18.609715   -24.322397    6.6279293    220.25962    -50.56132    4.3660391 
    9200   -1726427.5   -18.492886   -24.159786    6.6580095    220.44542   -50.807575    4.4235358 
    9300   -1726427.5    -18.37758   -23.993371    6.6917895    220.61883   -51.046175    4.4732616 
    9400   -1726427.5   -18.256101   -23.822585    6.7267974    220.79529   -51.296457    4.5254529 
    9500   -1726427.6   -18.146765   -23.660039    6.7571568    220.95356   -51.531535    4.5795081 
    9600   -1726427.6   -18.023856   -23.493304    6.7940434     221.1149   -51.774998    4.6289014 
    9700   -1726427.6   -17.899695   -23.318392    6.8319135    221.27692   -52.029226    4.6803655 
    9800   -1726427.7   -17.790068   -23.160465    6.8621297    221.41847   -52.265514    4.7328161 
    9900   -1726427.7   -17.672439   -23.000496    6.8995731    221.55608   -52.501716    4.7818155 
   10000   -1726427.7   -17.555005   -22.839309    6.9341132    221.68808   -52.745688    4.8306469 
   10100   -1726427.8   -17.438421   -22.675129    6.9728492    221.81219   -52.990343    4.8775097 
   10200   -1726427.8   -17.322589   -22.518215    7.0091684    221.92676   -53.224251    4.9214995 
   10300   -1726427.8   -17.203931   -22.354192     7.043217    222.04529   -53.470942    4.9661358 
   10400   -1726427.8   -17.100173   -22.207504    7.0746286    222.15261   -53.704726    5.0095847 
   10500   -1726427.9   -16.986969   -22.050334    7.1103702     222.2601   -53.944707    5.0527313 
   10600   -1726427.9   -16.874062   -21.898085    7.1444601    222.36009   -54.180584     5.097234 
   10700   -1726427.9   -16.758142   -21.745357       7.1799     222.4537   -54.412867    5.1387713 
   10800     -1726428   -16.642631   -21.591706    7.2166745    222.54766   -54.656482    5.1848696 
   10900     -1726428   -16.533181   -21.445372    7.2506185    222.62982   -54.883898    5.2221881 
   11000     -1726428   -16.418304   -21.297522      7.28748    222.71502   -55.122721    5.2631646 
   11100     -1726428   -16.311237   -21.157251    7.3189935    222.79131   -55.356091     5.304309 
   11200     -1726428   -16.195849   -21.012817    7.3532521    222.86195    -55.58678    5.3406299 
   11300   -1726428.1    -16.07361   -20.861205     7.390031    222.93114   -55.827992    5.3770092 
   11400   -1726428.1   -15.963836     -20.7243    7.4227709    222.99315   -56.052032    5.4144638 
   11500   -1726428.1   -15.842686   -20.578542    7.4612284    223.05479   -56.287516    5.4494011 
   11600   -1726428.1    -15.72946   -20.437445    7.4934823    223.10972   -56.517041    5.4862141 
   11700   -1726428.2   -15.620437   -20.304467    7.5264216    223.16319   -56.748496    5.5212562 
   11800   -1726428.2   -15.508236   -20.165596    7.5592242    223.21204   -56.985727    5.5572292 
   11900   -1726428.2   -15.395396   -20.029814    7.5963321     223.2539   -57.208142    5.5893514 
   12000   -1726428.2   -15.276663   -19.886656    7.6333407     223.2956   -57.443713    5.6232483 
   12100   -1726428.3   -15.163005   -19.750613    7.6691673    223.32864   -57.672608    5.6577576 
   12200   -1726428.3   -15.050445    -19.61102    7.7016115    223.35582   -57.896058    5.6943703 
   12300   -1726428.3   -14.932589   -19.469578    7.7376016     223.3848   -58.130805    5.7295884 
   12400   -1726428.3   -14.819938   -19.329591     7.767745     223.4104   -58.357695     5.764633 
   12500   -1726428.3   -14.707214   -19.194806    7.8016325     223.4314   -58.580305    5.7938589 
   12600   -1726428.3   -14.588055   -19.055109     7.838874    223.44773   -58.814381    5.8240571 
   12700   -1726428.4   -14.477142   -18.924486    7.8710223     223.4603   -59.037613    5.8551136 
   12800   -1726428.4     -14.3603   -18.788635    7.9076995    223.47075   -59.263432    5.8835368 
   12900   -1726428.4   -14.245692   -18.652351    7.9455287    223.47645   -59.492828    5.9119357 
   13000   -1726428.4    -14.13559   -18.512301    7.9802099    223.47976   -59.723728    5.9427579 
   13100   -1726428.5   -14.026024    -18.38538    8.0138973    223.47982   -59.941868    5.9700922 
   13200   -1726428.5   -13.913948   -18.251205    8.0503401    223.47827   -60.167697    5.9978544 
   13300   -1726428.5   -13.799885   -18.119871    8.0886028    223.47211   -60.400315    6.0251438 
   13400   -1726428.5   -13.698715   -18.001372    8.1225362    223.46371   -60.615498    6.0494745 
   13500   -1726428.5   -13.593014   -17.879837    8.1582137    223.45336   -60.837384    6.0754757 
   13600   -1726428.5   -13.479589   -17.750331    8.1970345    223.43696   -61.068281    6.0996961 
   13700   -1726428.6   -13.376152   -17.636935    8.2309914    223.42024   -61.282165    6.1246051 
   13800   -1726428.6   -13.274112   -17.516293    8.2685663    223.40528   -61.503841    6.1476351 
   13900   -1726428.6   -13.164976   -17.394696    8.3044944    223.38451   -61.729822    6.1738724 
   14000   -1726428.6   -13.062533   -17.281308    8.3391886    223.36368   -61.944181    6.1951755 
   14100   -1726428.6   -12.951709   -17.162899    8.3773528    223.33933   -62.168647    6.2171014 
   14200   -1726428.7   -12.848599   -17.049586    8.4107068    223.31394   -62.385539    6.2406396 
   14300   -1726428.7   -12.744106   -16.939755    8.4443813     223.2855   -62.603638    6.2619384 
   14400   -1726428.7   -12.637845   -16.830792    8.4773112    223.25533   -62.827622    6.2849375 
   14500   -1726428.7   -12.532533   -16.721649    8.5112161    223.22197   -63.038851    6.3059926 
   14600   -1726428.7   -12.423773   -16.610254    8.5464867     223.1882   -63.261066    6.3255355 
   14700   -1726428.7   -12.321918   -16.500266    8.5779093    223.15179   -63.475381    6.3463905 
   14800   -1726428.8   -12.217034   -16.394198    8.6088834    223.11282   -63.690777     6.366693 
   14900   -1726428.8   -12.106215   -16.280131    8.6442391    223.06806   -63.913691    6.3880522 
   15000   -1726428.8   -12.005766   -16.179553    8.6745554    223.02082   -64.121474    6.4075573 
   15100   -1726428.8   -11.898489   -16.072425    8.7069191    222.97169   -64.335784    6.4273194 
   15200   -1726428.8   -11.789654   -15.964095    8.7399076    222.91852   -64.558453    6.4459554 
   15300   -1726428.8   -11.688633   -15.864249      8.77062    222.86742   -64.763171    6.4630494 
   15400   -1726428.8   -11.584778   -15.761737    8.8018168    222.81192   -64.975371    6.4797179 
   15500   -1726428.9   -11.477586   -15.657389    8.8320838    222.74913   -65.193064    6.4992575 
   15600   -1726428.9   -11.373032   -15.558768    8.8619406    222.68932   -65.396672    6.5141584 
   15700   -1726428.9   -11.267605   -15.456494    8.8930853    222.62405   -65.609166    6.5305215 
   15800   -1726428.9   -11.164405   -15.354901    8.9234535    222.55586   -65.823209    6.5481998 
   15900   -1726428.9   -11.064485   -15.257949    8.9530352    222.48864   -66.025509    6.5632394 
   16000   -1726428.9   -10.960094   -15.156688    8.9837752    222.41712   -66.239666    6.5802526 
   16100     -1726429   -10.862602   -15.065641    9.0115673     222.3464   -66.444229    6.5955679 
   16200     -1726429   -10.763056   -14.971621    9.0387848    222.27246   -66.648584     6.611098 
   16300     -1726429   -10.659768   -14.873141      9.06728    222.19357   -66.862931    6.6285637 
   16400     -1726429   -10.565359   -14.786181    9.0929189    222.11851   -67.061298    6.6444935 
   16500     -1726429   -10.466936   -14.698525    9.1210324     222.0412   -67.265294    6.6597274 
   16600     -1726429   -10.364657   -14.607113    9.1487751    221.95955   -67.474833    6.6746771 
   16700     -1726429   -10.267037   -14.521543    9.1740013    221.88324   -67.668522     6.689292 
   16800     -1726429   -10.168597   -14.433312    9.2018673    221.79933   -67.872163    6.7031369 
   16900   -1726429.1   -10.073671   -14.348183    9.2264707    221.71559   -68.071371    6.7171641 
   17000   -1726429.1   -9.9773979   -14.262377    9.2526207    221.63092   -68.266713    6.7307935 
   17100   -1726429.1   -9.8789857   -14.174659    9.2790454    221.54112   -68.469299     6.746079 
   17200   -1726429.1   -9.7912402   -14.093314    9.3038868    221.45562   -68.659776     6.757371 
   17300   -1726429.1   -9.6947414   -14.010671     9.327799    221.36104   -68.861222    6.7697362 
   17400   -1726429.1   -9.6055542    -13.93424    9.3511309     221.2712      -69.049    6.7828449 
   17500   -1726429.1   -9.5134221    -13.85384    9.3753942    221.17497   -69.244581    6.7941572 
   17600   -1726429.2   -9.4263198   -13.778041    9.3980249    221.08052   -69.435514    6.8059295 
   17700   -1726429.2   -9.3359628   -13.696711    9.4226245    220.98412   -69.624165    6.8180415 
   17800   -1726429.2   -9.2455494   -13.617136    9.4458923    220.88228   -69.821192    6.8313176 
   17900   -1726429.2   -9.1586172    -13.54118    9.4682027    220.78559   -70.004689    6.8434116 
   18000   -1726429.2   -9.0692809   -13.463151    9.4916575    220.68124   -70.197511     6.855714 
   18100   -1726429.2   -8.9838002   -13.393102    9.5127058    220.58009   -70.383444      6.86691 
   18200   -1726429.2   -8.8965002   -13.321558    9.5341335    220.47715   -70.568324    6.8781392 
   18300   -1726429.2   -8.8089572   -13.247165     9.555795    220.36813    -70.76211     6.888927 
   18400   -1726429.3   -8.7284531   -13.179377    9.5762807    220.26508   -70.939847    6.8987283 
   18500   -1726429.3   -8.6419923   -13.109585    9.5978018    220.15756   -71.125867    6.9079861 
   18600   -1726429.3   -8.5524473   -13.035637    9.6206379    220.04367   -71.316307    6.9174253 
   18700   -1726429.3   -8.4703886   -12.967334     9.639663    219.93693   -71.496283    6.9274737 
   18800   -1726429.3   -8.3861854   -12.899651    9.6600082    219.82891   -71.673696    6.9350503 
   18900   -1726429.3   -8.3012182    -12.82986    9.6818357    219.71635    -71.85783     6.943764 
   19000   -1726429.3   -8.2180748   -12.763505    9.7013431    219.60237   -72.042081    6.9534381 
   19100   -1726429.3   -8.1384903   -12.696007    9.7204368     219.4927   -72.216139    6.9623229 
   19200   -1726429.3   -8.0549177   -12.630255    9.7408969    219.37785   -72.398445    6.9706334 
   19300   -1726429.4   -7.9746566   -12.567889    9.7591223    219.26306   -72.576859    6.9791513 
   19400   -1726429.4   -7.8962999   -12.504939    9.7780838    219.14826   -72.749757    6.9872506 
   19500   -1726429.4   -7.8140697   -12.438266    9.7988791    219.03091   -72.929534    6.9943356 
   19600   -1726429.4    -7.729754   -12.373403    9.8173043    218.91084   -73.110838     7.002359 
   19700   -1726429.4   -7.6533959   -12.312695    9.8336292    218.79267   -73.286413    7.0099834 
   19800   -1726429.4   -7.5759394   -12.251911    9.8505523    218.67838   -73.454448    7.0170524 
   19900   -1726429.4    -7.497499   -12.188435    9.8693864    218.56001   -73.629642     7.025124 
   20000   -1726429.4   -7.4196521   -12.129625    9.8853708    218.43879   -73.808312    7.0328076 
   20100   -1726429.5   -7.3422473   -12.071626     9.902393    218.32406   -73.974283    7.0387149 
   20200   -1726429.5   -7.2624734   -12.011037     9.918729    218.20323   -74.145302    7.0446493 
   20300   -1726429.5   -7.1851126   -11.951047    9.9324965    218.07817   -74.321865     7.052222 
   20400   -1726429.5   -7.1101279   -11.897627    9.9461478    217.96113   -74.484568    7.0577782 
   20500   -1726429.5   -7.0357003   -11.840769    9.9616701    217.83979   -74.652804     7.064186 
   20600   -1726429.5   -6.9590288   -11.782466    9.9774568    217.71083   -74.827031    7.0701203 
   20700   -1726429.5   -6.8855641    -11.72904    9.9930269    217.58862   -74.992653    7.0742842 
   20800   -1726429.5   -6.8137102   -11.674029    10.007238    217.46548   -75.154986    7.0799985 
   20900   -1726429.5   -6.7390419   -11.617451    10.022093    217.33647   -75.322777    7.0855945 
   21000   -1726429.5    -6.664459   -11.559241    10.037167    217.20362   -75.494422    7.0903057 
   21100   -1726429.6   -6.5950691   -11.509555    10.050898     217.0767   -75.655033    7.0946924 
   21200   -1726429.6   -6.5228682   -11.457546    10.065033    216.94968   -75.814392    7.0987357 
   21300   -1726429.6   -6.4515302   -11.404136    10.080123    216.81825   -75.979043     7.102695 
   21400   -1726429.6   -6.3805139    -11.35235    10.094017    216.68467   -76.145092    7.1074197 
   21500   -1726429.6   -6.3152381   -11.305488    10.107019    216.55561   -76.299545    7.1103893 
   21600   -1726429.6   -6.2441455   -11.253668    10.119648    216.41994     -76.4623    7.1131317 
   21700   -1726429.6   -6.1753188   -11.205565    10.132176    216.28837   -76.622005    7.1163185 
   21800   -1726429.6   -6.1069918   -11.156988    10.144937    216.15765   -76.778537    7.1199159 
   21900   -1726429.6   -6.0365859   -11.106125    10.160389    216.01779   -76.943576    7.1230134 
   22000   -1726429.6   -5.9720484      -11.061    10.171563    215.89004   -77.095677    7.1261644 
   22100   -1726429.7    -5.904185   -11.011285    10.184172    215.75484   -77.254324    7.1283465 
   22200   -1726429.7   -5.8374702   -10.961974    10.196929    215.61959   -77.413931    7.1306627 
   22300   -1726429.7   -5.7714023   -10.913657    10.208978    215.48888   -77.566243    7.1330331 
   22400   -1726429.7   -5.7038498   -10.864433    10.221129    215.35071   -77.725118    7.1354094 
   22500   -1726429.7   -5.6389253   -10.820013    10.231718    215.21183   -77.883397     7.137621 
   22600   -1726429.7   -5.5775632   -10.777403     10.24087    215.07873   -78.034708    7.1407385 
   22700   -1726429.7   -5.5139564   -10.731291    10.252854    214.94367   -78.186783    7.1425235 
   22800   -1726429.7   -5.4476938   -10.684751     10.26562    214.80166   -78.343324    7.1434036 
   22900   -1726429.7   -5.3839338    -10.64065    10.276078    214.66722   -78.494196    7.1454019 
   23000   -1726429.7   -5.3211701   -10.597842    10.287216     214.5327   -78.643881    7.1465463 
   23100   -1726429.8   -5.2564798    -10.55452    10.297281    214.38979   -78.801189    7.1483095 
   23200   -1726429.8   -5.1948601    -10.51166     10.30702    214.25935   -78.946386     7.150039 
   23300   -1726429.8   -5.1315746   -10.468318    10.318179    214.12149   -79.097828    7.1514724 
   23400   -1726429.8   -5.0707769   -10.429811    10.326722    213.98557   -79.247897    7.1544465 
   23500   -1726429.8    -5.011783   -10.391221    10.335698    213.85196   -79.393996    7.1560744 
   23600   -1726429.8   -4.9493847   -10.350056    10.344656    213.71089   -79.547224    7.1574934 
   23700   -1726429.8   -4.8901394   -10.310687    10.353084     213.5789   -79.689365    7.1589916 
   23800   -1726429.8   -4.8282119   -10.271092    10.362491    213.43993   -79.839302    7.1603823 
   23900   -1726429.8   -4.7692333    -10.23631    10.371247     213.3026    -79.98627    7.1620121 
   24000   -1726429.8   -4.7125147    -10.19812    10.379517    213.16765   -80.131024    7.1644278 
   24100   -1726429.8    -4.653475   -10.158225    10.388064    213.02475   -80.282756    7.1664032 
   24200   -1726429.9   -4.5976727   -10.122492    10.396709    212.89231   -80.423186    7.1684911 
   24300   -1726429.9   -4.5393492   -10.084108    10.405292    212.75365   -80.569172    7.1708416 
   24400   -1726429.9   -4.4801079   -10.046193    10.413413    212.61154   -80.719342    7.1735639 
   24500   -1726429.9   -4.4267324   -10.009337     10.42197    212.47781    -80.85772    7.1752592 
   24600   -1726429.9   -4.3674391   -9.9701341    10.431586    212.33578   -81.003605    7.1765544 
   24700   -1726429.9   -4.3123668    -9.932762    10.438682    212.19692   -81.147546    7.1780389 
   24800   -1726429.9   -4.2572964   -9.8965869    10.445317    212.05936   -81.287865    7.1792227 
   24900   -1726429.9   -4.1997738    -9.859702    10.451817    211.91589   -81.435331     7.179828 
   25000   -1726429.9   -4.1496392   -9.8271077    10.458285    211.77908   -81.573397    7.1823989 
   25100   -1726429.9   -4.0945406   -9.7934104    10.464646    211.63901   -81.714384    7.1840407 
   25200   -1726429.9   -4.0411209   -9.7595183    10.471317    211.49409   -81.857503    7.1856729 
   25300   -1726429.9   -3.9884025   -9.7247118    10.477897    211.35545   -81.994603    7.1877126 
   25400   -1726429.9   -3.9349652   -9.6917947    10.484372    211.20916   -82.138404    7.1889485 
   25500     -1726430   -3.8854067   -9.6629348    10.489979    211.06923   -82.275814    7.1901525 
   25600     -1726430   -3.8315592   -9.6263848    10.497379    210.92537   -82.414893    7.1910447 
   25700     -1726430   -3.7768337   -9.5935543     10.50387    210.77778   -82.556574    7.1905827 
   25800     -1726430   -3.7272911   -9.5627237    10.508179    210.63698   -82.690054    7.1901197 
   25900     -1726430    -3.673462   -9.5270259     10.51448    210.48696   -82.830883    7.1904306 
   26000     -1726430   -3.6243643   -9.4978649    10.520837    210.34417   -82.963991    7.1906128 
   26100     -1726430   -3.5723115   -9.4673374    10.526962    210.19625   -83.099711     7.190916 
   26200     -1726430   -3.5231153   -9.4372375    10.530875    210.04829   -83.236421    7.1925012 
   26300     -1726430   -3.4747988   -9.4061133    10.535565    209.90674     -83.3679    7.1936045 
   26400     -1726430   -3.4261165   -9.3738315    10.540102     209.7543   -83.507082    7.1949838 
   26500     -1726430   -3.3797156   -9.3463091    10.544223     209.6113   -83.636108    7.1966905 
   26600     -1726430   -3.3298357   -9.3162858    10.548501    209.45966   -83.774482    7.1975199 
   26700   -1726430.1   -3.2829975   -9.2880049     10.55202    209.31459    -83.90503    7.1988784 
   26800   -1726430.1   -3.2338614   -9.2571708    10.556212    209.16511   -84.038596    7.1994645 
   26900   -1726430.1   -3.1864009   -9.2288439    10.560165    209.01176   -84.174176    7.2007869 
   27000   -1726430.1   -3.1383429   -9.1986726    10.565004    208.86701   -84.302327    7.2010213 
   27100   -1726430.1    -3.089319   -9.1696835    10.568669    208.71559   -84.434855    7.2011386 
   27200   -1726430.1   -3.0409364   -9.1409505     10.57355    208.56217   -84.570042    7.2005167 
   27300   -1726430.1   -2.9927931    -9.113533    10.576652     208.4101   -84.702329    7.2011394 
   27400   -1726430.1   -2.9479822   -9.0858891    10.579812    208.26362   -84.828198    7.2009936 
   27500   -1726430.1    -2.900373   -9.0564708    10.584979     208.1116   -84.959814    7.2011686 
   27600   -1726430.1   -2.8530551   -9.0311348    10.588948    207.95443   -85.094087    7.2004674 
   27700   -1726430.1   -2.8112216   -9.0038595    10.592038    207.80879   -85.217921    7.2004238 
   27800   -1726430.1   -2.7671204   -8.9777223    10.594126    207.65926   -85.345682    7.1996492 
   27900   -1726430.1   -2.7212969   -8.9487667    10.596571    207.50193   -85.478412    7.1988784 
   28000   -1726430.2   -2.6790905   -8.9230207    10.599517    207.35299   -85.603947      7.19795 
   28100   -1726430.2    -2.636796   -8.8984473    10.602852    207.20277    -85.73027    7.1968839 
   28200   -1726430.2   -2.5901475   -8.8700824    10.605855     207.0447   -85.860998    7.1956071 
   28300   -1726430.2   -2.5461481   -8.8452068    10.608462    206.89407   -85.987242    7.1938131 
   28400   -1726430.2   -2.5044603   -8.8205165    10.610027    206.74469   -86.110844    7.1932907 
   28500   -1726430.2   -2.4613214   -8.7957157    10.612881    206.58816   -86.238665    7.1915243 
   28600   -1726430.2   -2.4201052   -8.7725734    10.612807    206.43249   -86.365565    7.1905003 
   28700   -1726430.2   -2.3802719   -8.7499528     10.61446    206.28351   -86.486693    7.1897075 
   28800   -1726430.2   -2.3390119   -8.7238501    10.617409    206.12741   -86.611709    7.1881633 
   28900   -1726430.2   -2.2965248   -8.6997048    10.619384    205.96613   -86.738903    7.1872538 
   29000   -1726430.2   -2.2542029   -8.6784068    10.622127    205.81635   -86.856791    7.1851995 
   29100   -1726430.2   -2.2122167    -8.655347    10.623739    205.65938   -86.981327    7.1835663 
   29200   -1726430.3   -2.1696298   -8.6329157    10.624266    205.50071   -87.106183     7.182024 
   29300   -1726430.3   -2.1307751   -8.6106123    10.626483    205.34946   -87.224126    7.1801296 
   29400   -1726430.3   -2.0898937   -8.5873274    10.628347    205.19394   -87.346109    7.1782098 
   29500   -1726430.3   -2.0471595   -8.5634866    10.630306    205.03277   -87.470554    7.1759234 
   29600   -1726430.3   -2.0074989   -8.5423229    10.629693    204.87529   -87.591881    7.1735814 
   29700   -1726430.3   -1.9701472   -8.5199526    10.629603     204.7216   -87.709731    7.1721635 
   29800   -1726430.3   -1.9306926    -8.497485    10.630252    204.56637   -87.828695    7.1706192 
   29900   -1726430.3   -1.8921765   -8.4767068    10.629895    204.40626   -87.950051    7.1696914 
   30000   -1726430.3   -1.8537616   -8.4557139    10.629756    204.24714   -88.070908    7.1675291 
   30100   -1726430.3    -1.814972   -8.4310058    10.630804    204.09539    -88.18611    7.1658361 
   30200   -1726430.3   -1.7749632   -8.4096815    10.631888    203.93698   -88.304104    7.1639891 
   30300   -1726430.3    -1.734786   -8.3874658    10.634244    203.77554   -88.424052    7.1612384 
   30400   -1726430.3   -1.6948673   -8.3647766    10.635818    203.62532   -88.538202    7.1590153 
   30500   -1726430.3   -1.6543653   -8.3402718    10.636664    203.46617   -88.656629    7.1569789 
   30600   -1726430.3   -1.6140469   -8.3189171    10.636311    203.30159   -88.779094    7.1539316 
   30700   -1726430.4   -1.5782178   -8.2981263    10.635883     203.1474    -88.89325    7.1533596 
   30800   -1726430.4   -1.5437817   -8.2795479    10.635241    202.99387   -89.005354    7.1517777 
   30900   -1726430.4   -1.5046481   -8.2594126    10.635417    202.83448   -89.120519    7.1496053 
   31000   -1726430.4   -1.4633688   -8.2378233    10.636181    202.66958   -89.239145    7.1468716 
   31100   -1726430.4    -1.426471   -8.2180855    10.637268    202.51214   -89.352059    7.1438886 
   31200   -1726430.4   -1.3914545   -8.1996094    10.637193    202.35639     -89.4638    7.1402047 
   31300   -1726430.4    -1.354018   -8.1787076    10.636209    202.19563   -89.578504    7.1375931 
   31400   -1726430.4   -1.3161346   -8.1585698    10.635675    202.02965   -89.695809    7.1343382 
   31500   -1726430.4   -1.2837752    -8.140795    10.634634    201.87531   -89.804468    7.1312016 
   31600   -1726430.4   -1.2487388   -8.1242221    10.633949     201.7193   -89.913743    7.1280834 
   31700   -1726430.4   -1.2125011   -8.1036455    10.633896    201.55552   -90.027768    7.1248192 
   31800   -1726430.4   -1.1802669   -8.0848364    10.633175    201.39688   -90.137189     7.121526 
   31900   -1726430.4   -1.1458274   -8.0681136    10.632669    201.23975    -90.24556     7.119281 
   32000   -1726430.5   -1.1098629   -8.0485866    10.631873    201.07471   -90.358585    7.1163941 
   32100   -1726430.5   -1.0763605   -8.0305861    10.630193    200.91649   -90.466243     7.114914 
   32200   -1726430.5   -1.0412218   -8.0117438    10.629996     200.7579   -90.573806    7.1110551 
   32300   -1726430.5    -1.003346   -7.9921249    10.631273    200.59184   -90.685108    7.1073254 
   32400   -1726430.5  -0.97135672    -7.976385    10.629368    200.43535   -90.790379    7.1041948 
   32500   -1726430.5  -0.93890283   -7.9592431    10.627593    200.27396   -90.898263    7.1011051 
   32600   -1726430.5  -0.90607601   -7.9419247    10.625613     200.1088   -91.007764     7.097891 
   32700   -1726430.5  -0.87688047   -7.9251972    10.624562    199.95362   -91.111958    7.0949571 
   32800   -1726430.5   -0.8454956   -7.9061771    10.622671    199.78879   -91.220499    7.0921501 
   32900   -1726430.5  -0.81449759   -7.8894545    10.621354    199.62856   -91.325722     7.089677 
   33000   -1726430.5  -0.78368485   -7.8767107    10.619103    199.46891   -91.429905    7.0867027 
   33100   -1726430.5  -0.75103203   -7.8616195    10.617668    199.30125    -91.53868    7.0830222 
   33200   -1726430.5  -0.72096134   -7.8481638     10.61638    199.14618    -91.64059    7.0797382 
   33300   -1726430.5  -0.69116571    -7.832047    10.613919    198.98194   -91.746648    7.0767629 
   33400   -1726430.6   -0.6626382   -7.8139412    10.611287    198.81702   -91.853251    7.0735844 
   33500   -1726430.6  -0.63322509   -7.7985604    10.607592    198.65862   -91.954343    7.0707856 
   33600   -1726430.6  -0.60170356   -7.7812458     10.60567    198.49433    -92.05927     7.067744 
   33700   -1726430.6   -0.5718264   -7.7671818    10.601713    198.32768   -92.164751    7.0639338 
   33800   -1726430.6  -0.54168372   -7.7519453    10.598791       198.17   -92.264612    7.0594015 
   33900   -1726430.6  -0.51061301   -7.7370047      10.5969    198.00409   -92.369202    7.0553178 
   34000   -1726430.6  -0.48160058   -7.7258927    10.592685    197.83808   -92.472415    7.0526774 
   34100   -1726430.6  -0.45561779   -7.7133522    10.588551    197.68024   -92.571137     7.049911 
   34200   -1726430.6  -0.42620503   -7.6997295      10.5845    197.51462   -92.674107    7.0469143 
   34300   -1726430.6  -0.39847819   -7.6856957    10.581782    197.34981   -92.776458    7.0431423 
   34400   -1726430.6  -0.37161509   -7.6707125    10.578676    197.18901   -92.874651    7.0393319 
   34500   -1726430.6  -0.34148056   -7.6572896     10.57467    197.02168   -92.978077    7.0354616 
   34600   -1726430.6  -0.31328481   -7.6451019    10.570847    196.85729   -93.078888     7.031782 
   34700   -1726430.6  -0.28717598   -7.6318861    10.567592    196.69692    -93.17746    7.0281359 
   34800   -1726430.6  -0.26096088   -7.6165267    10.563497    196.52935   -93.277984    7.0243359 
   34900   -1726430.7  -0.23267809   -7.6032729    10.559926    196.36022   -93.381056    7.0210266 
   35000   -1726430.7  -0.20734881   -7.5918355     10.55538    196.20211   -93.477232    7.0180998 
   35100   -1726430.7  -0.18245452     -7.57819    10.551262    196.03787   -93.576167     7.014496 
   35200   -1726430.7  -0.15407939   -7.5647272     10.54746    195.87014   -93.677153    7.0116907 
   35300   -1726430.7  -0.12532433    -7.552198    10.543731    195.70005   -93.777999    7.0084245 
   35400   -1726430.7  -0.10038388   -7.5405555    10.539669    195.54066   -93.872246    7.0054538 
   35500   -1726430.7 -0.074529764   -7.5276383    10.538566    195.37536   -93.970514    7.0016951 
   35600   -1726430.7 -0.047390231   -7.5134228    10.534277    195.20304    -94.06987    6.9979283 
   35700   -1726430.7 -0.022007883   -7.5021771    10.529405    195.04489   -94.162367    6.9950781 
   35800   -1726430.7 0.0034939052   -7.4883479    10.524195    194.87988   -94.258444    6.9910211 
   35900   -1726430.7  0.027097248   -7.4782236    10.519689    194.71159   -94.357683    6.9878499 
   36000   -1726430.7  0.050430342    -7.469314    10.515565    194.55195   -94.450644     6.984312 
   36100   -1726430.7  0.075979921   -7.4574625    10.511406    194.38422   -94.548186    6.9804899 
   36200   -1726430.7  0.099730062   -7.4461092    10.507094    194.21897    -94.64278      6.97655 
   36300   -1726430.7   0.12468278   -7.4355944     10.50358    194.05779   -94.735128    6.9723732 
   36400   -1726430.7   0.14908369   -7.4246567    10.499339    193.88877   -94.831327    6.9687037 
   36500   -1726430.8   0.17406877   -7.4136082    10.494391    193.72487   -94.922982    6.9657683 
   36600   -1726430.8   0.19965486   -7.4025694    10.490975     193.5611   -95.015405    6.9620335 
   36700   -1726430.8   0.22690327   -7.3916354    10.486266     193.3919   -95.110409    6.9575039 
   36800   -1726430.8    0.2514455   -7.3835813    10.481646    193.21956   -95.206209    6.9538437 
   36900   -1726430.8   0.27391716   -7.3736933     10.47777    193.05873   -95.295238    6.9495939 
   37000   -1726430.8   0.29811143   -7.3656324    10.472974    192.89478   -95.386048    6.9445328 
   37100   -1726430.8   0.32177076   -7.3548528    10.468606    192.72679   -95.478832    6.9394182 
   37200   -1726430.8   0.34472039   -7.3445294    10.463201    192.55238   -95.573201    6.9346597 
   37300   -1726430.8   0.36766137   -7.3345231    10.458639    192.39091   -95.661136    6.9314307 
   37400   -1726430.8   0.39066908   -7.3265196    10.453593    192.22491   -95.749174    6.9267176 
   37500   -1726430.8    0.4163121   -7.3153119     10.44898    192.05478   -95.840625    6.9215387 
   37600   -1726430.8   0.44083083   -7.3034438     10.44409    191.88337   -95.932251    6.9167202 
   37700   -1726430.8    0.4636135   -7.2954392    10.438817    191.72106   -96.018773     6.911636 
   37800   -1726430.8   0.48525612    -7.286497    10.433191    191.55424   -96.107359     6.906771 
   37900   -1726430.8   0.50860599   -7.2770675    10.427511     191.3832   -96.198443    6.9009763 
   38000   -1726430.9   0.52970824   -7.2690669    10.420697    191.21491   -96.286764    6.8959814 
   38100   -1726430.9   0.55061336   -7.2610108    10.414765    191.05108   -96.372829    6.8900862 
   38200   -1726430.9   0.57082232    -7.250572    10.409135    190.88362   -96.460614    6.8856597 
   38300   -1726430.9   0.59404036   -7.2390265    10.403224    190.71066   -96.550233    6.8803627 
   38400   -1726430.9    0.6160939   -7.2294911    10.396538     190.5383   -96.639264     6.875649 
   38500   -1726430.9   0.63690919   -7.2171169    10.390599    190.37572   -96.721874     6.870634 
   38600   -1726430.9   0.65750382   -7.2066512    10.384093    190.20851   -96.807333     6.866224 
   38700   -1726430.9    0.6787191   -7.1949025    10.377989    190.03836   -96.894346    6.8619422 
   38800   -1726430.9   0.70104957    -7.186157    10.372076    189.86694   -96.982549    6.8566252 
   38900   -1726430.9   0.71837771   -7.1805634    10.364216    189.70275   -97.065975    6.8523534 
   39000   -1726430.9   0.73695064   -7.1751729    10.358368    189.54282   -97.148758    6.8475232 
   39100   -1726430.9   0.75555603   -7.1677807    10.349673    189.37432   -97.235116    6.8432832 
   39200   -1726430.9   0.77465032   -7.1593537    10.342084    189.20583   -97.320793    6.8379091 
   39300   -1726430.9   0.79400644   -7.1507991    10.336648    189.04403   -97.403298    6.8329988 
   39400   -1726430.9   0.81257242   -7.1429328    10.330352    188.87708   -97.486956     6.828048 
   39500   -1726430.9   0.83143252   -7.1367562    10.321958    188.70805   -97.572628    6.8219826 
   39600   -1726430.9   0.85040027    -7.128129    10.314714    188.54945   -97.652912    6.8164682 
   39700     -1726431   0.86825116   -7.1211328    10.307608    188.38389   -97.736838    6.8102404 
   39800     -1726431   0.88647391   -7.1166989    10.299565    188.22005   -97.820417    6.8046104 
   39900     -1726431   0.90699796   -7.1098262    10.292701     188.0578   -97.903435    6.8000757 
   40000     -1726431    0.9238165   -7.1044161    10.284675    187.89405   -97.986297    6.7944018 
   40100     -1726431   0.94207164   -7.0979763    10.278171    187.73177   -98.067434    6.7886639 
   40200     -1726431   0.96101249   -7.0920547    10.271558    187.56119   -98.152355    6.7831509 
   40300     -1726431   0.97798666   -7.0868122    10.264045    187.40373   -98.230595    6.7782492 
   40400     -1726431    0.9956567   -7.0805005    10.256392    187.23931   -98.311665    6.7730374 
   40500     -1726431    1.0144616   -7.0759252    10.250432    187.06978   -98.394003     6.767536 
   40600     -1726431    1.0324639   -7.0710118    10.242533    186.90434   -98.474422    6.7613341 
   40700     -1726431    1.0495944   -7.0637045    10.235227    186.74215   -98.553151    6.7548876 
   40800     -1726431    1.0658284   -7.0575729    10.227252    186.57243   -98.634608    6.7488514 
   40900     -1726431     1.085281   -7.0524263    10.219839    186.40984   -98.713142    6.7435056 
   41000     -1726431     1.101915   -7.0472096     10.21222    186.24557   -98.790674    6.7373481 
   41100     -1726431    1.1211985   -7.0416562    10.203825    186.07442   -98.871575     6.731179 
   41200     -1726431    1.1379477   -7.0368133    10.197724    185.91549   -98.946885    6.7250092 
   41300     -1726431    1.1559866   -7.0291383    10.190486    185.75039   -99.024332    6.7192941 
   41400   -1726431.1    1.1739138   -7.0233651    10.182784    185.58011   -99.102952    6.7131037 
   41500   -1726431.1     1.190271   -7.0191224    10.175221    185.42133   -99.176319     6.706843 
   41600   -1726431.1    1.2093561   -7.0119107    10.167888    185.25248   -99.253071    6.7016867 
   41700   -1726431.1    1.2233116   -7.0073718    10.159477     185.0865   -99.329764    6.6970022 
   41800   -1726431.1    1.2375817   -7.0005404    10.150846     184.9229   -99.402502    6.6910829 
   41900   -1726431.1    1.2526487   -6.9944765    10.142019    184.75232   -99.478801    6.6860876 
   42000   -1726431.1    1.2677918   -6.9900679    10.132006    184.59089    -99.54999    6.6815883 
   42100   -1726431.1    1.2845222   -6.9830085    10.123609    184.42387    -99.62413    6.6764583 
   42200   -1726431.1    1.2994899    -6.979147     10.11482    184.25784   -99.697817    6.6704934 
   42300   -1726431.1    1.3161883    -6.972444    10.106155    184.09309   -99.770313    6.6654765 
   42400   -1726431.1    1.3324564   -6.9658084    10.098493     183.9222   -99.845499    6.6592535 
   42500   -1726431.1    1.3460214   -6.9614546    10.090974    183.76022   -99.914579    6.6541748 
   42600   -1726431.1    1.3636732   -6.9534037    10.082583    183.58968   -99.989445    6.6469408 
   42700   -1726431.1    1.3766186   -6.9486786    10.073466    183.42455   -100.06046    6.6417419 
   42800   -1726431.1    1.3902214    -6.946761    10.064062    183.25667   -100.13112     6.635019 
   42900   -1726431.1    1.4073806   -6.9414246    10.054385    183.08177   -100.20485    6.6293373 
   43000   -1726431.1    1.4199744   -6.9378193    10.045448    182.91932   -100.27309    6.6233405 
   43100   -1726431.2    1.4344165   -6.9324789    10.036932    182.75131   -100.34324    6.6174554 
   43200   -1726431.2    1.4494177   -6.9293861    10.027788    182.57679   -100.41536    6.6111546 
   43300   -1726431.2    1.4623182   -6.9273412    10.017763    182.41346   -100.48177    6.6054291 
   43400   -1726431.2    1.4785444   -6.9223694    10.008687    182.24568   -100.54949    6.5988923 
   43500   -1726431.2    1.4928505   -6.9167032    9.9997075    182.07162   -100.61979    6.5919355 
   43600   -1726431.2    1.5078065    -6.912992    9.9914226     181.9012   -100.68875    6.5842859 
   43700   -1726431.2    1.5216372   -6.9084602    9.9819636    181.73614    -100.7557    6.5772431 
   43800   -1726431.2    1.5350499   -6.9018608    9.9721857    181.56598   -100.82406    6.5715703 
   43900   -1726431.2    1.5498055   -6.8940046    9.9648097    181.39148   -100.89487    6.5644495 
   44000   -1726431.2    1.5646883   -6.8890438    9.9556744    181.22253   -100.96225    6.5579067 
   44100   -1726431.2    1.5792878   -6.8845909    9.9466813    181.05738   -101.02767    6.5510471 
   44200   -1726431.2    1.5938863     -6.87849    9.9381432    180.88712     -101.095    6.5441092 
   44300   -1726431.2    1.6074886   -6.8737052    9.9287901    180.71313   -101.16294     6.538209 
   44400   -1726431.2    1.6191432   -6.8702822    9.9192303    180.54872   -101.22605    6.5314567 
   44500   -1726431.2    1.6311295   -6.8645115    9.9094968    180.37517   -101.29356    6.5257866 
   44600   -1726431.2     1.643474   -6.8606408    9.9002186    180.20532   -101.35942    6.5195694 
   44700   -1726431.2    1.6567296    -6.856288    9.8912208    180.03755   -101.42353    6.5131424 
   44800   -1726431.3     1.670516   -6.8524113    9.8811396    179.86276   -101.48977    6.5061776 
   44900   -1726431.3    1.6832642   -6.8467133     9.873619    179.69995   -101.55207    6.4993556 
   45000   -1726431.3    1.6958315   -6.8436074    9.8642576    179.52593   -101.61736    6.4925857 
   45100   -1726431.3    1.7071046   -6.8403431    9.8551986    179.35609   -101.68164    6.4863105 
   45200   -1726431.3    1.7208773   -6.8349638    9.8462392    179.18342   -101.74628    6.4793196 
   45300   -1726431.3    1.7316291   -6.8325592    9.8362292     179.0063   -101.81252    6.4739574 
   45400   -1726431.3    1.7434251   -6.8308355    9.8266489    178.83577   -101.87629    6.4682193 
   45500   -1726431.3    1.7584499   -6.8260072    9.8163992    178.65584   -101.94277    6.4610995 
   45600   -1726431.3    1.7718214   -6.8226547    9.8075591    178.48395   -102.00737    6.4536449 
   45700   -1726431.3    1.7842495   -6.8168675    9.7978326    178.31327   -102.07027    6.4465354 
   45800   -1726431.3    1.7956908   -6.8132082     9.786933    178.13447    -102.1351    6.4386725 
   45900   -1726431.3     1.807922   -6.8058508    9.7788646    177.96651    -102.1969    6.4314365 
   46000   -1726431.3    1.8204701   -6.8000521    9.7705858    177.79179   -102.25995    6.4244547 
   46100   -1726431.3    1.8294842   -6.7944815    9.7596008     177.6174   -102.32224    6.4181301 
   46200   -1726431.3    1.8411612   -6.7883979    9.7501912    177.44828   -102.38308    6.4112686 
   46300   -1726431.3    1.8522416   -6.7832573    9.7396445     177.2701   -102.44659    6.4047705 
   46400   -1726431.3    1.8597172   -6.7788915    9.7285664    177.10259   -102.50523    6.4002837 
   46500   -1726431.3    1.8676089   -6.7762222    9.7166857    176.92823   -102.56802    6.3948783 
   46600   -1726431.4    1.8765493   -6.7723307    9.7061179    176.75701   -102.62802    6.3892288 
   46700   -1726431.4    1.8866982   -6.7677745    9.6960395    176.58385   -102.68831     6.382202 
   46800   -1726431.4    1.8951171   -6.7642118    9.6855496    176.41092   -102.74788    6.3763587 
   46900   -1726431.4    1.9050727   -6.7607989    9.6748844    176.23845   -102.80698    6.3693645 
   47000   -1726431.4    1.9128706   -6.7571257    9.6629643    176.06477   -102.86642    6.3634429 
   47100   -1726431.4    1.9200489   -6.7538586    9.6527152    175.89463   -102.92457    6.3570234 
   47200   -1726431.4    1.9288674   -6.7505838    9.6418107    175.72063   -102.98396    6.3511686 
   47300   -1726431.4    1.9379531   -6.7440377    9.6325076    175.55196   -103.04083    6.3445867 
   47400   -1726431.4    1.9471286   -6.7404484     9.622711    175.37774   -103.09997    6.3382113 
   47500   -1726431.4    1.9564554   -6.7369831    9.6116737    175.20859   -103.15686    6.3314405 
   47600   -1726431.4    1.9668722   -6.7329972    9.6007445     175.0317   -103.21607    6.3246094 
   47700   -1726431.4    1.9757414   -6.7299878    9.5910451    174.86444   -103.27169    6.3189487 
   47800   -1726431.4    1.9835791   -6.7270092    9.5798312    174.68756    -103.3298    6.3122622 
   47900   -1726431.4    1.9902731   -6.7237576    9.5684485    174.52067   -103.38387    6.3066508 
   48000   -1726431.4    1.9991735   -6.7195314    9.5572125    174.34421   -103.44061    6.2998972 
   48100   -1726431.4    2.0076086   -6.7160275    9.5465839    174.17555   -103.49489    6.2932491 
   48200   -1726431.4    2.0175947   -6.7119991    9.5362132    174.00244   -103.54926    6.2868398 
   48300   -1726431.5    2.0250285   -6.7094904     9.525005    173.82767   -103.60457    6.2798598 
   48400   -1726431.5    2.0320845   -6.7088056    9.5146189    173.65845   -103.65834    6.2728272 
   48500   -1726431.5     2.043746   -6.7063692    9.5035814    173.48154   -103.71396    6.2651425 
   48600   -1726431.5    2.0509345   -6.7064083    9.4926027    173.31206   -103.76661    6.2577756 
   48700   -1726431.5    2.0596485   -6.7038079    9.4819466    173.14002   -103.81996    6.2497523 
   48800   -1726431.5    2.0685119   -6.7006244    9.4709068    172.96083   -103.87475    6.2429032 
   48900   -1726431.5    2.0778754   -6.6969106    9.4605277     172.7923   -103.92686    6.2359607 
   49000   -1726431.5      2.08732   -6.6953618    9.4509291    172.62195   -103.97982    6.2281785 
   49100   -1726431.5    2.0972532   -6.6929428    9.4409112    172.44313   -104.03362    6.2202279 
   49200   -1726431.5    2.1045678   -6.6914761    9.4307211     172.2734   -104.08537    6.2126728 
   49300   -1726431.5    2.1134291   -6.6874727    9.4212057    172.10284   -104.13717    6.2047982 
   49400   -1726431.5    2.1226016   -6.6811866    9.4112416    171.92701   -104.19055    6.1970501 
   49500   -1726431.5     2.132648   -6.6765545    9.4021115    171.75871   -104.24228    6.1902926 
   49600   -1726431.5     2.139793   -6.6722941    9.3921593    171.58802   -104.29412    6.1834273 
   49700   -1726431.5    2.1495968   -6.6690362    9.3824315    171.40996   -104.34743    6.1760828 
   49800   -1726431.5    2.1585846   -6.6630397    9.3732521    171.24429   -104.39672    6.1693093 
   49900   -1726431.5    2.1664134    -6.658051     9.362788    171.07071   -104.44844    6.1628774 
   50000   -1726431.5    2.1745019   -6.6566438    9.3516551    170.89783   -104.50002    6.1555937 
   50100   -1726431.6    2.1827573   -6.6535675    9.3413482    170.72799   -104.54948    6.1484696 
   50200   -1726431.6     2.190281   -6.6493602    9.3311732    170.55084   -104.60134    6.1395438 
   50300   -1726431.6    2.1981413    -6.646541    9.3216424    170.38326   -104.64975      6.13194 
   50400   -1726431.6    2.2073399   -6.6389851    9.3126932    170.21377   -104.69896    6.1248483 
   50500   -1726431.6    2.2156765   -6.6346638    9.3016124    170.03679   -104.74957    6.1171117 
   50600   -1726431.6    2.2240479   -6.6305285    9.2920784    169.87156   -104.79649     6.109254 
   50700   -1726431.6    2.2314949   -6.6276385     9.281559    169.70008   -104.84432    6.1021539 
   50800   -1726431.6    2.2389513   -6.6237923    9.2711381    169.52536   -104.89455    6.0938017 
   50900   -1726431.6    2.2484649   -6.6187644    9.2624469    169.36093   -104.94051    6.0863877 
   51000   -1726431.6    2.2570168   -6.6133049    9.2531519     169.1905   -104.98679    6.0785988 
   51100   -1726431.6    2.2640401   -6.6079438    9.2423344    169.01471   -105.03584    6.0711918 
   51200   -1726431.6    2.2705385   -6.6047624    9.2319061     168.8511   -105.08036    6.0645002 
   51300   -1726431.6    2.2790126     -6.60071    9.2219355     168.6808   -105.12736    6.0565734 
   51400   -1726431.6    2.2881963   -6.5965935    9.2122442    168.50744   -105.17518     6.048604 
   51500   -1726431.6    2.2953172   -6.5928475     9.202973    168.34343   -105.22042    6.0413169 
   51600   -1726431.6     2.302968    -6.590385    9.1931516    168.17457   -105.26674    6.0338285 
   51700   -1726431.6    2.3125436   -6.5866001    9.1829081    168.00028   -105.31469    6.0255751 
   51800   -1726431.6    2.3196997   -6.5843765     9.172626    167.83617   -105.35917    6.0177595 
   51900   -1726431.7    2.3256287   -6.5818025    9.1631629    167.67014   -105.40397    6.0091817 
   52000   -1726431.7    2.3322915   -6.5763563    9.1526028    167.49916   -105.44961    6.0009926 
   52100   -1726431.7    2.3391008   -6.5735542    9.1416837    167.33044   -105.49345    5.9932731 
   52200   -1726431.7    2.3453103   -6.5720129    9.1316189    167.16645   -105.53631    5.9850121 
   52300   -1726431.7    2.3523971   -6.5686658    9.1212998    166.99769   -105.58074    5.9770139 
   52400   -1726431.7    2.3589684    -6.567648    9.1116276    166.83027   -105.62488    5.9690867 
   52500   -1726431.7    2.3664209   -6.5652345    9.1013992    166.66781   -105.66569    5.9604674 
   52600   -1726431.7    2.3717412   -6.5622311    9.0914183    166.49766   -105.70935    5.9517456 
   52700   -1726431.7    2.3787785   -6.5588667    9.0809997    166.32988    -105.7523    5.9429031 
   52800   -1726431.7     2.385223   -6.5570122    9.0713387    166.16799   -105.79367    5.9343355 
   52900   -1726431.7    2.3916547   -6.5532656    9.0608484    165.99713   -105.83677    5.9259356 
   53000   -1726431.7    2.3978881   -6.5507307    9.0515477    165.83512     -105.877    5.9181173 
   53100   -1726431.7    2.4043313   -6.5477132    9.0419308    165.67102   -105.91826      5.91066 
   53200   -1726431.7    2.4108311   -6.5454331    9.0315458     165.5009   -105.96026    5.9022671 
   53300   -1726431.7    2.4175161   -6.5423625    9.0208404    165.33722   -106.00109    5.8939113 
   53400   -1726431.7    2.4241501    -6.538701    9.0117034     165.1745   -106.04099    5.8860926 
   53500   -1726431.7    2.4285492   -6.5350305    9.0025028    165.00516   -106.08176    5.8777892 
   53600   -1726431.7    2.4336876    -6.532296    8.9911253    164.83666   -106.12272    5.8695206 
   53700   -1726431.7     2.439284   -6.5302674    8.9801394    164.67729   -106.16149    5.8623349 
   53800   -1726431.7    2.4442275   -6.5271518    8.9708035    164.51429   -106.20113    5.8544528 
   53900   -1726431.8      2.45111   -6.5229701    8.9601757    164.34567   -106.24163    5.8466104 
   54000   -1726431.8    2.4578444   -6.5208893    8.9494483    164.17577   -106.28203    5.8387295 
   54100   -1726431.8    2.4631348    -6.517792    8.9399763    164.01742   -106.31882    5.8312603 
   54200   -1726431.8    2.4676496   -6.5147837    8.9300534    163.85427   -106.35689    5.8229397 
   54300   -1726431.8     2.474905   -6.5136252    8.9190788    163.68664   -106.39657    5.8142408 
   54400   -1726431.8    2.4765008   -6.5125477    8.9076303     163.5226   -106.43501       5.8059 
   54500   -1726431.8    2.4827453   -6.5108473    8.8978637    163.36173   -106.47231    5.7982017 
   54600   -1726431.8    2.4856807   -6.5077837    8.8860615    163.19602   -106.51084    5.7890349 
   54700   -1726431.8    2.4884338   -6.5060214    8.8745927    163.03284   -106.54751    5.7806113 
   54800   -1726431.8    2.4927107   -6.5046365    8.8623121    162.87213   -106.58405    5.7713368 
   54900   -1726431.8    2.4980418   -6.5023916    8.8513364    162.70474   -106.62182    5.7629525 
   55000   -1726431.8    2.5029358   -6.5012555      8.83971    162.54302   -106.65833     5.754345 
   55100   -1726431.8    2.5089588   -6.4991488    8.8293361    162.38082   -106.69439    5.7459709 
   55200   -1726431.8     2.514204   -6.4970838    8.8172392    162.21388   -106.73194    5.7387623 
   55300   -1726431.8    2.5176172   -6.4959034    8.8071849    162.05484   -106.76782    5.7307471 
   55400   -1726431.8    2.5224737   -6.4932247    8.7965644    161.88676   -106.80457    5.7220197 
   55500   -1726431.8    2.5267323   -6.4943737    8.7841973    161.73035   -106.83998    5.7145363 
   55600   -1726431.8    2.5323348   -6.4923175    8.7730273    161.56376   -106.87623    5.7062952 
   55700   -1726431.8    2.5370933   -6.4896585    8.7626583    161.40678   -106.91103    5.6990117 
   55800   -1726431.8    2.5437073   -6.4892899    8.7535301    161.24292   -106.94704     5.690808 
   55900   -1726431.9    2.5488332   -6.4873471    8.7429359    161.08647   -106.98134    5.6830943 
   56000   -1726431.9    2.5532776   -6.4857455    8.7332666    160.92174   -107.01689    5.6747365 
   56100   -1726431.9    2.5579442   -6.4817885    8.7228504    160.76492    -107.0505    5.6665453 
   56200   -1726431.9    2.5642146   -6.4788579    8.7135344    160.60055   -107.08499    5.6574971 
   56300   -1726431.9    2.5687515   -6.4768094    8.7038113    160.44241   -107.11861    5.6497231 
   56400   -1726431.9     2.574575   -6.4743236    8.6940901    160.28181   -107.15262    5.6404213 
   56500   -1726431.9    2.5779746   -6.4750053     8.683773    160.12218   -107.18572    5.6328608 
   56600   -1726431.9    2.5838487   -6.4760065    8.6735006    159.96227    -107.2185    5.6234596 
   56700   -1726431.9    2.5890788   -6.4747012    8.6626257     159.7967   -107.25281    5.6147151 
   56800   -1726431.9    2.5927167   -6.4749551    8.6530616     159.6434   -107.28401    5.6058911 
   56900   -1726431.9    2.5965912   -6.4740234    8.6425896    159.48297   -107.31616    5.5973463 
   57000   -1726431.9    2.6015429   -6.4714228    8.6331527    159.32128   -107.34888    5.5873906 
   57100   -1726431.9    2.6060678   -6.4693687    8.6222617    159.16626   -107.37932    5.5785528 
   57200   -1726431.9    2.6093633   -6.4695793    8.6125332    159.00362   -107.41245    5.5678302 
   57300   -1726431.9    2.6123882   -6.4695244    8.6013503    158.84965   -107.44531    5.5592631 
   57400   -1726431.9    2.6174344   -6.4676529    8.5892334    158.69091    -107.4772    5.5501533 
   57500   -1726431.9    2.6216772   -6.4660018    8.5789359    158.53199   -107.50906    5.5414121 
   57600   -1726431.9    2.6277297   -6.4643387    8.5683112    158.37513   -107.54069    5.5325339 
   57700   -1726431.9    2.6297807   -6.4645702    8.5573868    158.21538   -107.57211    5.5225271 
   57800   -1726431.9    2.6315923   -6.4647515    8.5476995    158.06354   -107.60167    5.5136858 
   57900   -1726431.9    2.6357366   -6.4635382    8.5376617    157.90454   -107.63281    5.5050263 
   58000     -1726432    2.6395838   -6.4644847    8.5273555    157.74731   -107.66261    5.4963973 
   58100     -1726432     2.645033   -6.4606705     8.517991    157.59215    -107.6924    5.4877672 
   58200     -1726432    2.6495743   -6.4575989    8.5079546    157.43112   -107.72329    5.4790402 
   58300     -1726432    2.6524615   -6.4576382    8.4980094    157.28083   -107.75197    5.4699824 
   58400     -1726432    2.6563897   -6.4590346    8.4883802     157.1247      -107.78    5.4610878 
   58500     -1726432    2.6598952   -6.4599234    8.4782633    156.96746   -107.80815    5.4524982 
   58600     -1726432    2.6632962   -6.4589529    8.4678394    156.81761   -107.83646     5.444274 
   58700     -1726432    2.6671887   -6.4570963     8.458049    156.66032   -107.86578    5.4354129 
   58800     -1726432    2.6711558    -6.458699    8.4472055    156.50642   -107.89457    5.4271586 
   58900     -1726432    2.6711839   -6.4581004    8.4369087    156.35527   -107.92307    5.4195655 
   59000     -1726432    2.6756863   -6.4587688    8.4266562    156.19758   -107.95201    5.4107362 
   59100     -1726432    2.6782235   -6.4610679    8.4165958    156.04592   -107.98072    5.4022791 
   59200     -1726432    2.6834379   -6.4604773    8.4060384    155.89449   -108.00828    5.3948243 
   59300     -1726432    2.6859133   -6.4606768    8.3957504    155.73574   -108.03721    5.3863305 
   59400     -1726432    2.6915442     -6.45859    8.3862395    155.58694   -108.06396    5.3783054 
   59500     -1726432    2.6952872   -6.4594532    8.3763496    155.43084   -108.09186    5.3697071 
   59600     -1726432    2.6975094   -6.4624693    8.3679756    155.27495   -108.11883    5.3609255 
   59700     -1726432    2.7003522   -6.4631234    8.3583204    155.12328   -108.14521    5.3529787 
   59800     -1726432    2.7045126   -6.4634641    8.3484495    154.96544   -108.17308    5.3448914 
   59900     -1726432    2.7071383   -6.4636369    8.3379225    154.81248   -108.19957    5.3370971 
   60000     -1726432     2.710088   -6.4659273    8.3279896    154.66083   -108.22662    5.3289832 
   60100   -1726432.1    2.7132906   -6.4663435    8.3177675    154.50266   -108.25414    5.3208532 
   60200   -1726432.1    2.7166746   -6.4663222    8.3086244    154.35512   -108.27982     5.312624 
   60300   -1726432.1    2.7233514   -6.4648051    8.2997359    154.20264   -108.30632     5.303751 
   60400   -1726432.1    2.7266596   -6.4649984    8.2890639    154.04683   -108.33241    5.2952046 
   60500   -1726432.1    2.7311878   -6.4651559    8.2800993    153.89767   -108.35831     5.287147 
   60600   -1726432.1    2.7359782   -6.4649659    8.2706357    153.74883   -108.38384    5.2786444 
   60700   -1726432.1    2.7406082   -6.4665207    8.2608324     153.5933   -108.41034    5.2703273 
   60800   -1726432.1    2.7432566   -6.4670058    8.2512131    153.44526   -108.43584    5.2626505 
   60900   -1726432.1    2.7462752   -6.4662154    8.2414897     153.2959   -108.46101    5.2546638 
   61000   -1726432.1    2.7510395   -6.4651949    8.2322204     153.1399   -108.48682    5.2469606 
   61100   -1726432.1    2.7522385   -6.4683051    8.2219258    152.99176   -108.51113    5.2391532 
   61200   -1726432.1    2.7554909   -6.4694935    8.2127725    152.84336   -108.53521    5.2311226 
   61300   -1726432.1    2.7593355   -6.4686747    8.2036771    152.68742   -108.56049    5.2231557 
   61400   -1726432.1    2.7625805   -6.4701698    8.1944502    152.54237   -108.58398    5.2156987 
   61500   -1726432.1    2.7651896    -6.471582    8.1846693    152.39213   -108.60858    5.2082573 
   61600   -1726432.1    2.7675522   -6.4743592    8.1749924    152.24345   -108.63287    5.1999592 
   61700   -1726432.1    2.7715515   -6.4766684    8.1648685    152.09538   -108.65542    5.1915875 
   61800   -1726432.1    2.7731471   -6.4774315    8.1529613     151.9414   -108.67914    5.1838617 
   61900   -1726432.1    2.7765223   -6.4790217    8.1434096    151.79677   -108.70158    5.1756291 
   62000   -1726432.1    2.7786547    -6.481525    8.1338772    151.64512   -108.72513    5.1665536 
   62100   -1726432.1    2.7821985   -6.4845749    8.1244927    151.49734   -108.74806    5.1580193 
   62200   -1726432.1    2.7859101   -6.4863826    8.1159912    151.35003   -108.77064    5.1490767 
   62300   -1726432.2    2.7912098   -6.4899678    8.1072047    151.19611   -108.79386    5.1389917 
   62400   -1726432.2    2.7939466   -6.4930004    8.0990503    151.05302   -108.81619    5.1310828 
   62500   -1726432.2    2.7976937   -6.4959198    8.0900312    150.90548   -108.83887    5.1222356 
   62600   -1726432.2    2.8014651   -6.4987739    8.0799462     150.7527   -108.86123    5.1134043 
   62700   -1726432.2    2.8071066   -6.5017548    8.0710028    150.61031   -108.88323    5.1055236 
   62800   -1726432.2    2.8099775   -6.5047179    8.0606085    150.46287   -108.90484    5.0976313 
   62900   -1726432.2    2.8105845   -6.5076491    8.0501084    150.30971   -108.92768    5.0890049 
   63000   -1726432.2    2.8124861   -6.5103976    8.0408455    150.16608   -108.94878    5.0803855 
   63100   -1726432.2    2.8172432   -6.5123721    8.0318451    150.02041   -108.97004    5.0716142 
   63200   -1726432.2    2.8206942   -6.5165572    8.0232308    149.86764   -108.99173    5.0615765 
   63300   -1726432.2    2.8250727   -6.5189301    8.0136779    149.72258   -109.01346     5.052973 
   63400   -1726432.2    2.8276349   -6.5219638     8.004529    149.57649   -109.03364     5.044949 
   63500   -1726432.2    2.8318049   -6.5221092    7.9957535    149.42398   -109.05441    5.0361404 
   63600   -1726432.2    2.8361427    -6.524346    7.9868191     149.2795   -109.07398    5.0277765 
   63700   -1726432.2    2.8411937   -6.5258505    7.9784072    149.13212   -109.09384    5.0190255 
   63800   -1726432.2    2.8453667   -6.5293597     7.969738     148.9818   -109.11355    5.0091223 
   63900   -1726432.2    2.8486316   -6.5309995    7.9609015    148.84038   -109.13255    5.0006151 
   64000   -1726432.2    2.8533869   -6.5313645    7.9518934    148.69301   -109.15244    4.9905951 
   64100   -1726432.2    2.8576913   -6.5328822    7.9425654    148.54706   -109.17263    4.9807871 
   64200   -1726432.2    2.8632503   -6.5322405    7.9346328    148.40274   -109.19139    4.9708245 
   64300   -1726432.2    2.8672237   -6.5343267    7.9253847    148.25265   -109.21031    4.9607177 
   64400   -1726432.2    2.8713134    -6.535622     7.916041    148.11158   -109.22844    4.9520423 
   64500   -1726432.2    2.8757588   -6.5375801    7.9067025    147.96161   -109.24756    4.9412295 
   64600   -1726432.3    2.8782588   -6.5394536     7.897358    147.81991   -109.26556    4.9323926 
   64700   -1726432.3     2.882571   -6.5386641    7.8883459    147.67155   -109.28465    4.9232171 
   64800   -1726432.3    2.8856367   -6.5406364    7.8796293    147.53009   -109.30237     4.914562 
   64900   -1726432.3    2.8912121   -6.5408421    7.8720308    147.38313   -109.32104    4.9042567 
   65000   -1726432.3    2.8953661   -6.5421142    7.8629258     147.2421   -109.33928    4.8941134 
   65100   -1726432.3    2.9006762   -6.5424492    7.8549159    147.09597   -109.35737    4.8840817 
   65200   -1726432.3    2.9058976   -6.5425109    7.8464098    146.95426   -109.37467    4.8749119 
   65300   -1726432.3    2.9112008   -6.5434444    7.8372891    146.81271   -109.39207    4.8658243 
   65400   -1726432.3    2.9149308   -6.5435711    7.8288157    146.67086   -109.41026    4.8572317 
   65500   -1726432.3    2.9185104   -6.5450701    7.8204198    146.52615   -109.42843    4.8478942 
   65600   -1726432.3    2.9214813   -6.5460585    7.8113081     146.3847   -109.44442     4.839224 
   65700   -1726432.3    2.9244626   -6.5464813    7.8024912     146.2428   -109.46078    4.8306672 
   65800   -1726432.3    2.9283759   -6.5473515    7.7941298    146.09828   -109.47783    4.8219518 
   65900   -1726432.3    2.9328847   -6.5473203    7.7858101    145.96057   -109.49378    4.8134019 
   66000   -1726432.3    2.9367656   -6.5487706    7.7767659     145.8179   -109.51078    4.8050293 
   66100   -1726432.3    2.9430841   -6.5495342    7.7688857     145.6805   -109.52672    4.7961501 
   66200   -1726432.3    2.9496999   -6.5476135    7.7606853    145.53981   -109.54339    4.7871412 
   66300   -1726432.3    2.9545244   -6.5475568    7.7523527    145.39782   -109.55949    4.7782958 
   66400   -1726432.3    2.9612209   -6.5473536    7.7447837    145.26096   -109.57527    4.7686362 
   66500   -1726432.3     2.967762   -6.5471921     7.735943    145.11909   -109.59189    4.7598227 
   66600   -1726432.3    2.9750031   -6.5446976    7.7283951    144.98225   -109.60685    4.7513801 
   66700   -1726432.3    2.9813599   -6.5436473    7.7207787    144.83969   -109.62356    4.7422518 
   66800   -1726432.3    2.9884139   -6.5409036    7.7131684     144.7018   -109.63838    4.7337043 
   66900   -1726432.3     2.995596   -6.5400849    7.7053759    144.55984   -109.65365    4.7242198 
   67000   -1726432.3     3.002411   -6.5378377    7.6978883    144.42193   -109.66858    4.7155873 
   67100   -1726432.4    3.0092167   -6.5354925    7.6907518    144.27912    -109.6836    4.7068023 
   67200   -1726432.4    3.0149419   -6.5354067    7.6833599    144.14125   -109.69724    4.6979321 
   67300   -1726432.4    3.0209405   -6.5353867    7.6753693    143.99689   -109.71269    4.6878591 
   67400   -1726432.4    3.0256907    -6.534741    7.6687641    143.86094   -109.72707    4.6788153 
   67500   -1726432.4    3.0313398   -6.5336042    7.6605002    143.71656   -109.74263    4.6692486 
   67600   -1726432.4    3.0369945    -6.531533    7.6529869    143.58068   -109.75689    4.6597009 
   67700   -1726432.4    3.0439363    -6.528697    7.6445992     143.4375   -109.77144    4.6510461 
   67800   -1726432.4     3.048016   -6.5261366    7.6366282    143.30058    -109.7854    4.6420769 
   67900   -1726432.4    3.0548858   -6.5245794    7.6297256    143.15837   -109.79914    4.6326493 
   68000   -1726432.4    3.0624836   -6.5227608    7.6229716    143.01928   -109.81257    4.6236504 
   68100   -1726432.4    3.0693534   -6.5191396    7.6158941    142.87846   -109.82595    4.6146065 
   68200   -1726432.4    3.0758046    -6.516708    7.6102804    142.74073   -109.83916    4.6053406 
   68300   -1726432.4    3.0833101   -6.5121304    7.6028726    142.60009   -109.85164    4.5957919 
   68400   -1726432.4    3.0868448   -6.5097984    7.5941123    142.46053   -109.86467    4.5864929 
   68500   -1726432.4    3.0925814   -6.5061349    7.5866381     142.3205   -109.87664    4.5773205 
   68600   -1726432.4    3.0976193   -6.5025056    7.5789682    142.18097   -109.88857    4.5681653 
   68700   -1726432.4    3.1027189   -6.4978967    7.5712065    142.04198   -109.90054     4.558764 
   68800   -1726432.4    3.1102752   -6.4934904     7.565167    141.90292    -109.9129    4.5503112 
   68900   -1726432.4    3.1152011   -6.4892801    7.5564666    141.76429   -109.92351    4.5396153 
   69000   -1726432.4    3.1202834   -6.4858856    7.5478316    141.62538   -109.93493    4.5303189 
   69100   -1726432.4     3.125075   -6.4801633    7.5394203    141.48689   -109.94606    4.5214771 
   69200   -1726432.4    3.1282228   -6.4760266    7.5309425    141.34493   -109.95731    4.5119756 
   69300   -1726432.4    3.1315996   -6.4716735    7.5231062    141.20681   -109.96816    4.5031188 
   69400   -1726432.4    3.1336025   -6.4677011    7.5145064    141.06218   -109.97953    4.4930692 
   69500   -1726432.4    3.1380349   -6.4619559    7.5069288    140.92611   -109.98993    4.4850329 
   69600   -1726432.4    3.1429093   -6.4563852    7.4987647    140.78202   -110.00113    4.4761497 
   69700   -1726432.4     3.146673   -6.4534378    7.4908465    140.64496   -110.01166    4.4683636 
   69800   -1726432.5    3.1504606   -6.4487087    7.4827775    140.50429   -110.02128    4.4597407 
   69900   -1726432.5    3.1522205   -6.4438187    7.4744838    140.36197   -110.03182    4.4511991 
   70000   -1726432.5    3.1568982   -6.4386858    7.4650208    140.22474   -110.04172    4.4428153 
   70100   -1726432.5    3.1618343   -6.4331723    7.4558744    140.08204   -110.05067    4.4340959 
   70200   -1726432.5    3.1656414   -6.4272824    7.4487986    139.94632    -110.0596    4.4252955 
   70300   -1726432.5    3.1685505   -6.4221802    7.4401984    139.80756   -110.06883    4.4173987 
   70400   -1726432.5     3.172007   -6.4141708    7.4314427    139.66484   -110.07845    4.4091363 
   70500   -1726432.5    3.1746281   -6.4063459    7.4236483    139.52905   -110.08685    4.4006881 
   70600   -1726432.5    3.1749778   -6.4019861    7.4137549    139.38556    -110.0962    4.3931481 
   70700   -1726432.5    3.1743794   -6.3963782    7.4045568    139.24997   -110.10514    4.3850361 
   70800   -1726432.5    3.1760341   -6.3905844    7.3956751    139.10756   -110.11384     4.376307 
   70900   -1726432.5    3.1767562   -6.3851164    7.3869577    138.96567   -110.12236    4.3672533 
   71000   -1726432.5    3.1781369   -6.3794225    7.3783992    138.82743   -110.12888    4.3594851 
   71100   -1726432.5    3.1811811   -6.3728925    7.3697534     138.6878   -110.13614    4.3511661 
   71200   -1726432.5    3.1832967   -6.3663895    7.3613826    138.54505   -110.14358    4.3426477 
   71300   -1726432.5    3.1851251   -6.3629661    7.3525249    138.40433   -110.15044    4.3341197 
   71400   -1726432.5    3.1864772   -6.3590075    7.3437517    138.26769   -110.15679    4.3257775 
   71500   -1726432.5    3.1852456   -6.3546516    7.3347612    138.13091   -110.16344    4.3182331 
   71600   -1726432.5    3.1860111   -6.3487293    7.3256153     137.9917    -110.1702    4.3109524 
   71700   -1726432.5    3.1863053   -6.3438416    7.3158647    137.84883   -110.17726    4.3037034 
   71800   -1726432.5    3.1873228   -6.3401909    7.3073059    137.71288   -110.18383    4.2964282 
   71900   -1726432.5     3.188871   -6.3367938    7.2994267    137.57571      -110.19    4.2882749 
   72000   -1726432.5    3.1891589     -6.33075    7.2905684    137.43483   -110.19672    4.2806343 
   72100   -1726432.5    3.1882308   -6.3265765     7.282202    137.29636   -110.20316    4.2721034 
   72200   -1726432.5    3.1893573   -6.3204268    7.2743682    137.16099   -110.20968    4.2644674 
   72300   -1726432.5    3.1904071   -6.3144761    7.2645874    137.02273   -110.21663    4.2564981 
   72400   -1726432.6     3.189317   -6.3081326    7.2559756    136.88407   -110.22263    4.2478788 
   72500   -1726432.6    3.1898847    -6.303305    7.2465118    136.75065   -110.22894    4.2394252 
   72600   -1726432.6    3.1900837   -6.2976773    7.2376947    136.61147   -110.23567    4.2316738 
   72700   -1726432.6    3.1921211   -6.2918082    7.2300228    136.47943   -110.24187    4.2234717 
   72800   -1726432.6    3.1923468   -6.2846647     7.221467    136.34231   -110.24795    4.2153088 
   72900   -1726432.6    3.1921201   -6.2794917    7.2122702    136.20549   -110.25328     4.207785 
   73000   -1726432.6    3.1935222   -6.2744256    7.2038073    136.07264   -110.25839    4.1999669 
   73100   -1726432.6    3.1930373   -6.2668289    7.1945638    135.93213   -110.26362    4.1919419 
   73200   -1726432.6    3.1922541   -6.2641949    7.1853686    135.80065   -110.26793    4.1848788 
   73300   -1726432.6     3.193309   -6.2585778    7.1777367    135.66514   -110.27278     4.176635 
   73400   -1726432.6     3.193935   -6.2524524     7.168351     135.5253   -110.27651    4.1682839 
   73500   -1726432.6    3.1926949   -6.2479404    7.1593613    135.39071   -110.28021    4.1602597 
   73600   -1726432.6    3.1929998   -6.2412082    7.1512077    135.25637   -110.28411    4.1524513 
   73700   -1726432.6    3.1936596   -6.2372788    7.1422962    135.11617   -110.28839    4.1447975 
   73800   -1726432.6    3.1926704   -6.2328169    7.1339468    134.98505   -110.29187      4.13764 
   73900   -1726432.6    3.1928225   -6.2268186    7.1251628    134.84934   -110.29545    4.1298867 
   74000   -1726432.6    3.1914375   -6.2209707    7.1165821    134.71224   -110.29917    4.1230911 
   74100   -1726432.6    3.1917284   -6.2148784    7.1086872    134.58068   -110.30256    4.1155399 
   74200   -1726432.6    3.1908073   -6.2080769    7.0997567    134.44313   -110.30631    4.1079319 
   74300   -1726432.6    3.1901057   -6.2015755    7.0904471    134.31117   -110.30985    4.1018301 
   74400   -1726432.6    3.1899723   -6.1965597    7.0814301    134.17693   -110.31378    4.0948317 
   74500   -1726432.6    3.1889994   -6.1907909     7.072352    134.03986   -110.31738    4.0862887 
   74600   -1726432.6    3.1883161   -6.1845127    7.0640168    133.91011   -110.32046    4.0795307 
   74700   -1726432.6    3.1886596   -6.1796194    7.0554889    133.77627   -110.32346    4.0713959 
   74800   -1726432.6    3.1875434   -6.1742803    7.0460281    133.63844   -110.32639    4.0638218 
   74900   -1726432.6    3.1865723   -6.1682472    7.0370612    133.50957   -110.32996    4.0560477 
   75000   -1726432.6    3.1851867   -6.1625012    7.0281756    133.37599   -110.33302    4.0479451 
   75100   -1726432.6    3.1845108   -6.1560511    7.0192733    133.23833   -110.33557    4.0396111 
   75200   -1726432.7    3.1845818   -6.1527753    7.0099837      133.107   -110.33863    4.0314299 
   75300   -1726432.7    3.1842907   -6.1488303    7.0010818    132.97583    -110.3417    4.0233442 
   75400   -1726432.7    3.1860451   -6.1434575    6.9925879    132.84035   -110.34438    4.0152461 
   75500   -1726432.7    3.1871437   -6.1386738    6.9830165    132.70201   -110.34767    4.0075338 
   75600   -1726432.7     3.186959   -6.1354025    6.9740299    132.57276   -110.34971    3.9993165 
   75700   -1726432.7    3.1879563   -6.1306676    6.9649659    132.44075   -110.35161    3.9913886 
   75800   -1726432.7    3.1884706   -6.1265479    6.9560397     132.3063   -110.35359    3.9820316 
   75900   -1726432.7     3.188106   -6.1218455    6.9463103    132.16913   -110.35587    3.9737771 
   76000   -1726432.7    3.1885178   -6.1177724    6.9383791    132.04144   -110.35765    3.9654786 
   76100   -1726432.7     3.189086    -6.111429    6.9306917    131.91067   -110.35894    3.9575885 
   76200   -1726432.7    3.1907559   -6.1040369    6.9231609    131.77611   -110.36093    3.9491836 
   76300   -1726432.7    3.1892812   -6.1000795    6.9144332    131.64803    -110.3617     3.941509 
   76400   -1726432.7    3.1880343   -6.0962975    6.9048175    131.51728   -110.36242     3.933889 
   76500   -1726432.7     3.190854   -6.0903141    6.8961684     131.3827   -110.36329    3.9254447 
   76600   -1726432.7    3.1898173   -6.0861079    6.8878898    131.25824   -110.36408    3.9174324 
   76700   -1726432.7    3.1916042    -6.081815    6.8792737    131.12694   -110.36407    3.9089746 
   76800   -1726432.7    3.1918283   -6.0786658    6.8705254    130.99539   -110.36439    3.9006814 
   76900   -1726432.7    3.1916686   -6.0739435    6.8619958      130.868   -110.36479    3.8920367 
   77000   -1726432.7    3.1913436    -6.068962    6.8533531    130.74012   -110.36547    3.8850636 
   77100   -1726432.7    3.1904962   -6.0633459    6.8431338    130.60745   -110.36477    3.8787802 
   77200   -1726432.7    3.1878766   -6.0597765    6.8329295    130.47854   -110.36443    3.8711318 
   77300   -1726432.7    3.1864893   -6.0555244    6.8241968    130.35328   -110.36446    3.8630262 
   77400   -1726432.7    3.1855601   -6.0503344     6.815549    130.22754   -110.36413    3.8552614 
   77500   -1726432.7    3.1852704   -6.0451011    6.8068957    130.09977   -110.36339     3.847675 
   77600   -1726432.7    3.1855408   -6.0395833    6.7979454    129.96877   -110.36282    3.8400085 
[...]
  193800   -1726434.4    1.1152725   -2.5699429   0.43277895    57.723607   -81.446322   -1.1148654 
  193900   -1726434.4    1.1130304   -2.5686758   0.42884137     57.69275   -81.418607   -1.1158238 
  194000   -1726434.4    1.1115573   -2.5678409   0.42539654    57.661872    -81.39065   -1.1172308 
  194100   -1726434.5    1.1102746   -2.5662947   0.42249105    57.631319   -81.363061   -1.1192834 
  194200   -1726434.5    1.1076577   -2.5655876   0.41793299    57.601343    -81.33607   -1.1199892 
  194300   -1726434.5     1.106508   -2.5641803    0.4143939    57.570686   -81.308076   -1.1213148 
  194400   -1726434.5    1.1044821   -2.5630381   0.41113725    57.540648    -81.27994   -1.1227307 
  194500   -1726434.5    1.1032275   -2.5613915   0.40864332    57.510069   -81.251918   -1.1242777 
  194600   -1726434.5    1.1018662   -2.5597485   0.40489622    57.479127   -81.223852   -1.1261081 
  194700   -1726434.5    1.1003701   -2.5578797   0.40218971    57.448807   -81.196223   -1.1275361 
  194800   -1726434.5    1.0981917   -2.5563163    0.3990096    57.418862   -81.168072   -1.1288974 
  194900   -1726434.5    1.0969504   -2.5544839   0.39585362    57.388407   -81.140045   -1.1302315 
  195000   -1726434.5    1.0957975   -2.5525986   0.39268345    57.357793   -81.112039    -1.131609 
  195100   -1726434.5     1.094204   -2.5509525   0.38936216    57.327279   -81.083748   -1.1332394 
  195200   -1726434.5    1.0937297   -2.5490491   0.38616895    57.296684   -81.055812   -1.1346467 
  195300   -1726434.5    1.0918344   -2.5473287   0.38298588    57.265394   -81.027784   -1.1361068 
  195400   -1726434.5    1.0899187   -2.5456503   0.37979679    57.234092   -80.999822   -1.1375867 
  195500   -1726434.5    1.0886207   -2.5440125   0.37619062    57.203292   -80.972247   -1.1388306 
  195600   -1726434.5    1.0872916   -2.5428281   0.37278414    57.171767   -80.944673   -1.1404917 
  195700   -1726434.5     1.086332   -2.5404401   0.36959138    57.140833   -80.917117   -1.1420779 
  195800   -1726434.5    1.0843346   -2.5390678   0.36648706    57.110405   -80.889237   -1.1436914 
  195900   -1726434.5    1.0826204   -2.5376531   0.36280429    57.080204   -80.861356   -1.1452587 
  196000   -1726434.5    1.0813759   -2.5360131   0.35958358    57.049472   -80.833675   -1.1467048 
  196100   -1726434.5    1.0802069   -2.5342456   0.35639463    57.018534   -80.805825   -1.1482147 
  196200   -1726434.5    1.0790702    -2.532445   0.35321497    56.987582   -80.777986   -1.1497467 
  196300   -1726434.5    1.0779527   -2.5306169   0.35005623    56.956713    -80.75024   -1.1512896 
  196400   -1726434.5    1.0769081   -2.5280292   0.34706099     56.92599   -80.722638   -1.1529051 
  196500   -1726434.5    1.0752273   -2.5260996   0.34446379    56.895545   -80.695279   -1.1543929 
  196600   -1726434.5    1.0735913   -2.5243103   0.34107533    56.864673    -80.66794   -1.1562383 
  196700   -1726434.5    1.0719009   -2.5217582   0.33769868     56.83449   -80.640345   -1.1575874 
  196800   -1726434.5    1.0706557   -2.5196731   0.33443443    56.805005   -80.612703    -1.159145 
  196900   -1726434.5    1.0695823   -2.5177132   0.33128598    56.774616   -80.585005   -1.1606545 
  197000   -1726434.5    1.0684905   -2.5157208   0.32815911    56.744129   -80.557243   -1.1621528 
  197100   -1726434.5    1.0663807     -2.51407   0.32504435    56.713343   -80.529539   -1.1636576 
  197200   -1726434.5     1.065076   -2.5122606   0.32189527    56.682916   -80.501833   -1.1651454 
  197300   -1726434.5    1.0628292   -2.5104618   0.31804707    56.652825   -80.474392   -1.1659078 
  197400   -1726434.5    1.0612768   -2.5084506   0.31486369    56.622683   -80.446854   -1.1672712 
  197500   -1726434.5    1.0598533   -2.5064545   0.31170888    56.592444   -80.419232   -1.1686838 
  197600   -1726434.5    1.0581753   -2.5070113   0.30818065    56.562982   -80.392456    -1.169875 
  197700   -1726434.5    1.0565635   -2.5055217   0.30498494    56.533095   -80.365204   -1.1712952 
  197800   -1726434.5    1.0550763   -2.5038356   0.30182048    56.503139   -80.337832   -1.1727564 
  197900   -1726434.5    1.0536684   -2.5020449   0.29867949    56.473185   -80.310426   -1.1742327 
  198000   -1726434.5    1.0515118   -2.5005204   0.29559056    56.443738   -80.282922   -1.1757548 
  198100   -1726434.5    1.0498743   -2.4987889   0.29252655     56.41407   -80.255314   -1.1771832 
  198200   -1726434.5    1.0477531   -2.4971214   0.28923089    56.384894   -80.228011   -1.1783424 
  198300   -1726434.5    1.0463603   -2.4952273   0.28609473    56.355455   -80.200529   -1.1797409 
  198400   -1726434.5    1.0442982   -2.4935945   0.28301343    56.326435   -80.172959   -1.1812191 
  198500   -1726434.5    1.0428336   -2.4915925   0.28055084     56.29744   -80.145259   -1.1823684 
  198600   -1726434.5      1.04053   -2.4904243   0.27727926      56.2688   -80.117639   -1.1835213 
  198700   -1726434.5    1.0391358   -2.4885328    0.2741039     56.24005   -80.090213   -1.1848322 
  198800   -1726434.5    1.0378591   -2.4866298   0.27093653    56.210964   -80.062593   -1.1862018 
  198900   -1726434.5    1.0366363   -2.4847603   0.26779719    56.182001   -80.035142   -1.1875858 
  199000   -1726434.5    1.0354389   -2.4828634   0.26466695    56.152892   -80.007601    -1.188991 
  199100   -1726434.5    1.0340179   -2.4810705   0.26095076    56.123892   -79.980269   -1.1899848 
  199200   -1726434.5    1.0326063   -2.4796872   0.25780173    56.095273   -79.952909   -1.1914818 
  199300   -1726434.5    1.0315171   -2.4777651   0.25468907    56.065828   -79.925269   -1.1929287 
  199400   -1726434.5    1.0300519   -2.4763315   0.25158836    56.037002   -79.897953   -1.1943628 
  199500   -1726434.5    1.0290001   -2.4742459   0.24909889    56.007511   -79.870793   -1.1957879 
  199600   -1726434.5    1.0279049   -2.4722672   0.24598982    55.977765   -79.843137    -1.197236 
  199700   -1726434.5    1.0269301   -2.4703661   0.24263311    55.948778   -79.815934   -1.1988588 
  199800   -1726434.5    1.0256931   -2.4684474   0.23948726    55.919314   -79.788588   -1.2002696 
  199900   -1726434.5     1.024255   -2.4666104   0.23577838    55.889463   -79.761276   -1.2020422 
  200000   -1726434.5    1.0231161   -2.4646779   0.23265071    55.859601    -79.73372   -1.2034626 
  200100   -1726434.5    1.0214926   -2.4629592   0.22933954    55.829521    -79.70671   -1.2051274 
  200200   -1726434.5    1.0201982   -2.4608765   0.22624242    55.799708   -79.679373   -1.2065422 
  200300   -1726434.5    1.0182201   -2.4597571   0.22307042    55.770479   -79.651855   -1.2080577 
  200400   -1726434.5    1.0162144   -2.4576341   0.21983049    55.740677   -79.624369   -1.2090358 
  200500   -1726434.5    1.0148452   -2.4553737   0.21687009    55.710995   -79.597047   -1.2103125 
  200600   -1726434.5    1.0134986   -2.4531225   0.21388766    55.681258   -79.569708   -1.2116422 
  200700   -1726434.5     1.011864   -2.4513714   0.21086813    55.651707   -79.542201   -1.2130239 
  200800   -1726434.5    1.0110683   -2.4490079   0.20785931    55.622078   -79.514658   -1.2145117 
  200900   -1726434.5    1.0098247    -2.446774   0.20477542    55.592424    -79.48723   -1.2159587 
  201000   -1726434.5    1.0077383   -2.4450358   0.20171471    55.563548    -79.46005   -1.2172004 
  201100   -1726434.5    1.0056405   -2.4430586   0.19887165    55.534482   -79.432556   -1.2186579 
  201200   -1726434.5    1.0035367   -2.4409649     0.195736    55.505411   -79.405191    -1.219762 
  201300   -1726434.5    1.0015392   -2.4388067   0.19254123    55.476874   -79.378205   -1.2208025 
  201400   -1726434.5    1.0003092   -2.4364418   0.18957127    55.447916   -79.351048   -1.2221127 
  201500   -1726434.5   0.99718293   -2.4347477   0.18677628    55.420003   -79.323428   -1.2235121 
  201600   -1726434.5   0.99559078   -2.4325469   0.18387852    55.391131   -79.295841   -1.2247811 
  201700   -1726434.5   0.99404143    -2.429949   0.18101656    55.362315   -79.268934   -1.2260182 
  201800   -1726434.5   0.99269171   -2.4277857   0.17802874    55.333446   -79.241604   -1.2273235 
  201900   -1726434.5   0.99070196   -2.4256053   0.17505562    55.304065   -79.214128   -1.2286796 
  202000   -1726434.5    0.9892288   -2.4238504   0.17192369    55.274408   -79.186959   -1.2302765 
  202100   -1726434.5   0.98823766    -2.421634   0.16907903    55.245186   -79.159842   -1.2317026 
  202200   -1726434.5   0.98694626   -2.4198053   0.16614987    55.216425    -79.13236   -1.2334679 
  202300   -1726434.5   0.98605763    -2.417495   0.16398987    55.187356   -79.104642    -1.234965 
  202400   -1726434.5   0.98416367   -2.4159108   0.16060683    55.158836   -79.077971    -1.236395 
  202500   -1726434.5   0.98319803   -2.4137262    0.1575494    55.129852   -79.050894   -1.2379197 
  202600   -1726434.5   0.98137429   -2.4126481   0.15401947    55.100117   -79.024275   -1.2396355 
  202700   -1726434.5   0.97963917   -2.4104889   0.15084868    55.071421   -78.997245   -1.2407218 
  202800   -1726434.5    0.9786554   -2.4082129   0.14782747    55.042351   -78.969996   -1.2420894 
  202900   -1726434.5   0.97805644   -2.4056316   0.14496343    55.013545   -78.942958   -1.2436767 
  203000   -1726434.5   0.97739606   -2.4031112   0.14208062    54.985106   -78.915864   -1.2447673 
  203100   -1726434.5    0.9765953   -2.4000843   0.13991005     54.95652   -78.889177   -1.2462154 
  203200   -1726434.5   0.97524255   -2.3988411   0.13677235    54.928102    -78.86239   -1.2476239 
  203300   -1726434.5   0.97405567   -2.3966744   0.13329534    54.899163   -78.835467   -1.2486008 
  203400   -1726434.5   0.97295873   -2.3947197   0.13085219    54.870429   -78.808775   -1.2498791 
  203500   -1726434.5   0.97142036   -2.3925447   0.12790762    54.841175   -78.781945   -1.2512641 
  203600   -1726434.5   0.97033565   -2.3908668   0.12479617    54.812442    -78.75531   -1.2525109 
  203700   -1726434.5   0.96963083   -2.3883864   0.12170264    54.783533   -78.728343   -1.2538066 
  203800   -1726434.5   0.96841463   -2.3861205   0.11867889     54.75433   -78.701372    -1.255135 
  203900   -1726434.5    0.9673013   -2.3830314   0.11593573    54.725311   -78.674921   -1.2564218 
  204000   -1726434.5   0.96552615   -2.3811886   0.11240856    54.696621   -78.648343   -1.2578452 
  204100   -1726434.5   0.96438187   -2.3790395   0.10939551    54.667398   -78.621381   -1.2591367 
  204200   -1726434.5   0.96326119   -2.3768218   0.10640889    54.638148   -78.594337   -1.2604628 
  204300   -1726434.5   0.96128908   -2.3746507   0.10325438    54.609737   -78.567582   -1.2613756 
  204400   -1726434.5   0.96007067   -2.3724098   0.10022147    54.581001   -78.540691   -1.2626149 
  204500   -1726434.5    0.9597135    -2.369682  0.097510062    54.551491   -78.513804   -1.2639709 
  204600   -1726434.5    0.9581474    -2.367467  0.094548865    54.522422   -78.486699   -1.2653841 
  204700   -1726434.5    0.9562017   -2.3657719  0.091305878     54.49405   -78.459971   -1.2665499 
  204800   -1726434.5   0.95513638   -2.3634797  0.088256529    54.465356   -78.433284   -1.2678381 
  204900   -1726434.5   0.95409458   -2.3611529  0.085263234    54.436483   -78.406411   -1.2691374 
  205000   -1726434.5   0.95303112   -2.3588221  0.082272284    54.407454   -78.379385   -1.2704468 
  205100   -1726434.5   0.95194732   -2.3565259  0.079285831    54.378473   -78.352401   -1.2717564 
  205200   -1726434.5     0.950206   -2.3541058  0.077055282    54.349958   -78.325896   -1.2733079 
  205300   -1726434.5   0.94799018   -2.3525535  0.074068733      54.3222   -78.298933   -1.2747739 
  205400   -1726434.5    0.9466174   -2.3503781  0.071169255    54.293618   -78.271858   -1.2760658 
  205500   -1726434.5   0.94471702   -2.3482568  0.068049098    54.265252   -78.244923   -1.2771022 
  205600   -1726434.5   0.94365694   -2.3453777  0.065274637    54.237282   -78.217749   -1.2780818 
  205700   -1726434.5   0.94241125   -2.3428984  0.062367643    54.209081   -78.190923   -1.2792194 
  205800   -1726434.5   0.94117851   -2.3404373  0.059444157    54.180683   -78.164009   -1.2803979 
  205900   -1726434.5   0.94078484   -2.3379313  0.056751173    54.152257   -78.137056   -1.2819204 
  206000   -1726434.5   0.93966752   -2.3355026  0.053855334    54.123635   -78.110066   -1.2831707 
  206100   -1726434.5   0.93851015   -2.3331409  0.050952027    54.095223   -78.083323   -1.2844238 
  206200   -1726434.5   0.93782271   -2.3306511  0.048199187    54.066992   -78.056375   -1.2853041 
  206300   -1726434.5   0.93667559   -2.3280025  0.046670005    54.038576   -78.029916   -1.2867504 
  206400   -1726434.5   0.93554031   -2.3254754  0.043732083    54.009942   -78.002966   -1.2879961 
  206500   -1726434.5   0.93406866   -2.3231388  0.040245788    53.981567   -77.976357    -1.288864 
  206600   -1726434.5   0.93257812   -2.3215651  0.037122381    53.952648   -77.949986   -1.2903165 
  206700   -1726434.5   0.93028744   -2.3201668  0.033953467    53.924684   -77.923307    -1.291301 
  206800   -1726434.5   0.92892341   -2.3180644  0.030874017    53.896216    -77.89639   -1.2925357 
  206900   -1726434.5   0.92765955    -2.315966  0.027842807    53.867903   -77.869651   -1.2937935 
  207000   -1726434.5   0.92644532   -2.3138431  0.024848435    53.839683   -77.842988   -1.2950628 
  207100   -1726434.5   0.92515614   -2.3123417  0.021746721    53.811574   -77.816427   -1.2962589 
  207200   -1726434.5    0.9237567   -2.3101729  0.018534968    53.783632   -77.789607   -1.2975289 
  207300   -1726434.5   0.92242738   -2.3085582  0.015529365     53.75529   -77.762864   -1.2988404 
  207400   -1726434.5   0.92118342   -2.3068013  0.012611429    53.727074   -77.736281   -1.3001485 
  207500   -1726434.5    0.9199756   -2.3049538 0.0097198642    53.698713   -77.709594   -1.3014651 
  207600   -1726434.5   0.91977178   -2.3024797 0.0070428626    53.670685   -77.682844   -1.3030641 
  207700   -1726434.5   0.91876337   -2.3004468 0.0042989385    53.642192   -77.656108    -1.304368 
  207800   -1726434.5   0.91748377    -2.298577 0.00085968327    53.614071   -77.629164   -1.3058142 
  207900   -1726434.5   0.91629396   -2.2969588 -0.0026050073    53.586081   -77.603092   -1.3070182 
  208000   -1726434.5   0.91586857   -2.2949741 -0.0054348348     53.55739   -77.576312   -1.3087107 
  208100   -1726434.5   0.91445582    -2.293627 -0.0084107633     53.52919   -77.549502   -1.3101202 
  208200   -1726434.5   0.91327802   -2.2916753 -0.011374183    53.500826   -77.522822    -1.311509 
  208300   -1726434.5   0.91211428   -2.2897043  -0.01430875    53.472606   -77.496266   -1.3128825 
  208400   -1726434.5   0.91017579   -2.2877422 -0.017422969    53.444789   -77.469696   -1.3138604 
  208500   -1726434.5   0.90715267   -2.2860891 -0.020564972      53.4179   -77.442878   -1.3147349 
  208600   -1726434.5   0.90534659   -2.2845174 -0.023345222    53.390678   -77.415743   -1.3162434 
  208700   -1726434.5    0.9040243   -2.2827412 -0.026294787    53.363254   -77.389057    -1.317502 
  208800   -1726434.5   0.90290072   -2.2800466 -0.029188474    53.335899   -77.362467   -1.3188056 
  208900   -1726434.5   0.90180412   -2.2779928 -0.032084875    53.308251   -77.335718   -1.3201088 
  209000   -1726434.5   0.90075031   -2.2759425 -0.034984807    53.280387   -77.308873   -1.3214186 
  209100   -1726434.5    0.8981199   -2.2740081 -0.038054759    53.252983   -77.282407    -1.322407 
  209200   -1726434.5   0.89660173   -2.2719557 -0.041193066    53.226055   -77.256067   -1.3232256 
  209300   -1726434.5   0.89514072   -2.2698323 -0.044202513    53.198688   -77.229512   -1.3243055 
  209400   -1726434.5    0.8936492   -2.2677148 -0.047812663    53.171024   -77.202589   -1.3251179 
  209500   -1726434.5   0.89209874   -2.2655476 -0.051327161    53.143431   -77.176116   -1.3258427 
  209600   -1726434.5   0.89089521   -2.2633769 -0.054227139    53.115928   -77.149732   -1.3269774 
  209700   -1726434.5   0.88995819   -2.2606806  -0.05710402    53.088701   -77.123326   -1.3281146 
  209800   -1726434.5   0.88916429   -2.2578829 -0.059282221    53.061367   -77.096828   -1.3293737 
  209900   -1726434.5   0.88717967   -2.2555451  -0.06238705    53.033239   -77.070505   -1.3307119 
  210000   -1726434.6   0.88573975   -2.2531435 -0.065280009    53.005452   -77.044048   -1.3318107 
  210100   -1726434.6   0.88385753   -2.2505309 -0.068113563    52.977646    -77.01779   -1.3329652 
  210200   -1726434.6   0.88188078   -2.2475384 -0.071141677    52.950534   -76.991702   -1.3338252 
  210300   -1726434.6   0.88055548   -2.2451404 -0.074004804    52.922851   -76.965261   -1.3349365 
  210400   -1726434.6   0.87927435   -2.2428069 -0.076854295    52.895101   -76.938812   -1.3360696 
  210500   -1726434.6   0.87801495   -2.2405312  -0.07967385    52.867563   -76.912593   -1.3372101 
  210600   -1726434.6   0.87675331   -2.2382686 -0.082496234    52.839915   -76.886293   -1.3383703 
  210700   -1726434.6   0.87548254   -2.2360188 -0.085333774    52.812098   -76.859853   -1.3395501 
  210800   -1726434.6   0.87420547   -2.2337971 -0.088181198    52.784215   -76.833368    -1.340743 
  210900   -1726434.6   0.87325989   -2.2312271 -0.090881276    52.757026   -76.807364    -1.342046 
  211000   -1726434.6   0.87192548   -2.2289464 -0.093705567    52.729482   -76.781139   -1.3431477 
  211100   -1726434.6   0.87061113    -2.226038 -0.096423239    52.701987   -76.755115    -1.344389 
  211200   -1726434.6    0.8687931   -2.2240077 -0.099766749    52.674986   -76.728664    -1.345109 
  211300   -1726434.6   0.86633647   -2.2222017  -0.10261063    52.648282   -76.702143   -1.3462294 
  211400   -1726434.6   0.86475572   -2.2201771   -0.1054583    52.621225   -76.675832   -1.3472986 
  211500   -1726434.6   0.86046315   -2.2178619  -0.10832699    52.595581    -76.64965   -1.3480575 
  211600   -1726434.6   0.85829227   -2.2165116  -0.11125439    52.569517   -76.623015   -1.3488307 
  211700   -1726434.6   0.85621136   -2.2146649   -0.1144949    52.543201   -76.596533   -1.3492864 
  211800   -1726434.6   0.85452685    -2.212752  -0.11724455     52.51677   -76.570145   -1.3501839 
  211900   -1726434.6   0.85202195   -2.2112697  -0.12037034    52.491096    -76.54381   -1.3511134 
  212000   -1726434.6   0.84942286   -2.2096456  -0.12341613    52.464642   -76.517731   -1.3526032 
  212100   -1726434.6   0.84810297   -2.2077524  -0.12623022    52.438188   -76.491286   -1.3538621 
  212200   -1726434.6    0.8469877    -2.205895  -0.12904994    52.411486   -76.464868   -1.3551336 
  212300   -1726434.6   0.84593463   -2.2040536  -0.13184961    52.384881   -76.438697   -1.3563868 
  212400   -1726434.6   0.84490198   -2.2021949   -0.1346664    52.358104   -76.412469   -1.3576348 
  212500   -1726434.6   0.84387024   -2.2003183  -0.13750548    52.331087   -76.386105   -1.3588827 
  212600   -1726434.6   0.84314529   -2.1985404   -0.1403463    52.304055   -76.359855   -1.3599372 
  212700   -1726434.6   0.83949101   -2.1963931  -0.14246348    52.279129   -76.334149   -1.3607532 
  212800   -1726434.6   0.83791806   -2.1947603  -0.14534263    52.253195   -76.307833   -1.3618097 
  212900   -1726434.6    0.8356343   -2.1930486  -0.14823488    52.227005   -76.281434   -1.3628637 
  213000   -1726434.6   0.83419089   -2.1912269  -0.15110505     52.20067   -76.255002   -1.3638867 
  213100   -1726434.6   0.83268091   -2.1891622  -0.15402058    52.174582   -76.229124   -1.3643038 
  213200   -1726434.6   0.82965864   -2.1877508  -0.15698727    52.149585    -76.20291   -1.3649519 
  213300   -1726434.6   0.82705622   -2.1862249  -0.16019327    52.124337   -76.176823   -1.3653538 
  213400   -1726434.6   0.82566324   -2.1843426   -0.1632373    52.099024   -76.150819   -1.3661776 
  213500   -1