LAMMPS (22 Aug 2018)
Running on 8 partitions of processors
Step MaxReplicaForce MaxAtomForce GradV0 GradV1 GradVc EBF EBR RDT RD1 PE1 RD2 PE2 ... RDN PEN
0    11298.856    5135.7447    1.3412102    1.3413895    11299.397    8882.8232    8797.1092    671.26208            0   -1726435.2   0.14285714   -1725863.2   0.28571429   -1723852.4   0.42857143   -1717728.4   0.57142857   -1717552.4   0.71428571     -1723730   0.85714286   -1725757.7            1   -1726349.5 
100    24.724662     1.165366   0.10950039   0.10940367    23.420073    875.62298    789.90898    679.27259            0   -1726435.3   0.14284156   -1726365.5   0.28570263   -1726111.8   0.42857626   -1725689.8   0.57143622   -1725559.7   0.71429911   -1725942.7   0.85715728   -1726261.5            1   -1726349.6 
200    16.336329   0.75378411  0.037855323  0.037848728    16.353085    688.05302    602.33901    686.02902            0   -1726435.3   0.14283487   -1726394.7   0.28569031   -1726236.9   0.42856441   -1725897.8   0.57142943   -1725747.3   0.71429611   -1726080.7   0.85715659   -1726299.9            1   -1726349.6 
300    12.958296   0.70640334  0.017393545  0.017418171    13.122086    567.66487    481.95087    692.82265            0   -1726435.3   0.14283037   -1726405.4   0.28567974   -1726290.8   0.42855121   -1726011.2   0.57141892   -1725867.7   0.71429032   -1726150.6   0.85715343     -1726315            1   -1726349.6 
400    10.981081    0.7568279   0.01029421  0.010325357    11.139179    489.14605    403.43205    698.57797            0   -1726435.3   0.14282837   -1726410.1   0.28567442   -1726316.2   0.42854211   -1726072.7   0.57141091   -1725946.2    0.7142843   -1726188.4   0.85715008   -1726321.8            1   -1726349.6 
500    9.3942159   0.59023746 0.0068547861 0.0068892866    9.5358326    431.15264    345.43864    703.79582            0   -1726435.3   0.14282914   -1726412.8   0.28567425   -1726331.8   0.42853973   -1726113.5   0.57140807   -1726004.2   0.71428166   -1726213.3   0.85714809   -1726325.7            1   -1726349.6 
600    8.0848868   0.72351976 0.0048264331 0.0048651118    8.1791606    385.26808    299.55408     708.8014            0   -1726435.3   0.14283258   -1726414.7    0.2856768     -1726343   0.42854364   -1726144.6   0.57140778   -1726050.1   0.71428282   -1726231.6   0.85714661   -1726328.5            1   -1726349.6 
700    7.1319262   0.59689296 0.0036918847  0.003734749     7.245016    353.34261     267.6286    712.88586            0   -1726435.3   0.14283465     -1726416   0.28568195   -1726350.4   0.42854574   -1726166.1   0.57141198     -1726082   0.71428251   -1726243.8   0.85714711   -1726330.2            1   -1726349.6 
800    6.4403365   0.42265118 0.0029002673 0.0029471471    6.5464879    326.68318    240.96917    716.71948            0   -1726435.3   0.14283716     -1726417   0.28568564   -1726356.4   0.42854893   -1726183.9   0.57141423   -1726108.7   0.71428324   -1726253.6   0.85714691   -1726331.6            1   -1726349.6 
900    5.8976597   0.45012514 0.0023260422 0.0023762281    5.9958335    303.56112    217.84712    720.34458            0   -1726435.3   0.14283936   -1726417.8   0.28568843   -1726361.3   0.42855177   -1726199.2   0.57141564   -1726131.8   0.71428401   -1726261.6   0.85714655   -1726332.7            1   -1726349.6 
1000    5.4464821    0.4112432 0.0019378382 0.0019901182    5.5462851    285.32826    199.61426    723.43627            0   -1726435.3   0.14284086   -1726418.4   0.28569111     -1726365    0.4285537   -1726211.5   0.57141766     -1726150   0.71428443   -1726267.7   0.85714665   -1726333.5            1   -1726349.6 
1100    5.0189672   0.43156673  0.001627157 0.0016806579    5.1153754    268.80338    183.08938     726.4742            0   -1726435.3   0.14284244   -1726418.9   0.28569353   -1726368.3   0.42855597   -1726223.1   0.57141939   -1726166.5   0.71428515   -1726273.1   0.85714668   -1726334.2            1   -1726349.6 
1200    4.6033092   0.40209162 0.0013828829 0.0014367027    4.6969826    254.42089    168.70689    729.37432            0   -1726435.3   0.14284378   -1726419.4   0.28569582   -1726371.2   0.42855788   -1726233.7   0.57142117   -1726180.9    0.7142857   -1726277.9   0.85714679   -1726334.8            1   -1726349.6 
1300    4.2761917     0.367992  0.001205287 0.0012587164    4.3666871    243.10961    157.39561     731.8806            0   -1726435.3   0.14284485   -1726419.8   0.28569717   -1726373.4   0.42855923   -1726242.3   0.57142187   -1726192.2   0.71428607   -1726281.7   0.85714662   -1726335.2            1   -1726349.6 
1400    4.0006807   0.38172462 0.0010552062 0.0011076796    4.0904934    232.77679    147.06279    734.35818            0   -1726435.3   0.14284562   -1726420.2   0.28569823   -1726375.4   0.42855998   -1726250.2   0.57142237   -1726202.6   0.71428612   -1726285.2   0.85714643   -1726335.6            1   -1726349.6 
1500    3.7436203   0.38762535 0.00093083021 0.00098190045    3.8334687    223.51115    137.79715    736.75152            0   -1726435.3   0.14284633   -1726420.5   0.28569933   -1726377.1   0.42856084   -1726257.4   0.57142311   -1726211.8   0.71428635   -1726288.4    0.8571464     -1726336            1   -1726349.6 
1600    3.5020816   0.37087727 0.00083338792 0.00088284424    3.5906095     215.8045     130.0905    738.91509            0   -1726435.3   0.14284709   -1726420.8   0.28570044   -1726378.6   0.42856195   -1726263.6   0.57142395   -1726219.5   0.71428679     -1726291   0.85714644   -1726336.3            1   -1726349.6 
1700    3.2620328   0.26366764 0.00074728361 0.00079483365    3.3472901    208.70335    122.98935    741.09701            0   -1726435.3   0.14284787   -1726421.1   0.28570167   -1726379.9   0.42856311   -1726269.5   0.57142493   -1726226.6   0.71428723   -1726293.5   0.85714651   -1726336.6            1   -1726349.6 
1800    3.0434142    0.2273292 0.00067393321 0.00071941995    3.1233337     202.4404     116.7264    743.20406            0   -1726435.3   0.14284866   -1726421.4   0.28570295   -1726381.2   0.42856434   -1726274.8   0.57142596   -1726232.9   0.71428771   -1726295.7   0.85714661   -1726336.9            1   -1726349.6 
1900     2.871348    0.2123097 0.00061628556 0.0006598085     2.945485    197.35507    111.64107    745.05942            0   -1726435.3   0.14284938   -1726421.6   0.28570407   -1726382.3   0.42856549   -1726279.2   0.57142689     -1726238   0.71428821   -1726297.5   0.85714671   -1726337.1            1   -1726349.6 
2000    2.7135168   0.18521719 0.0005635756 0.00060499146    2.7811659    192.54091    106.82691    746.94602            0   -1726435.3   0.14285006   -1726421.8   0.28570518   -1726383.3   0.42856661   -1726283.5   0.57142784   -1726242.8    0.7142887   -1726299.2   0.85714684   -1726337.3            1   -1726349.6 
2100    2.5909437   0.22440629 0.00051665341 0.0005559022    2.6371458    188.07933    102.36533    748.81393            0   -1726435.3   0.14285127   -1726422.1   0.28570555   -1726384.4    0.4285685   -1726287.5   0.57142729   -1726247.3   0.71428984   -1726300.7   0.85714638   -1726337.5            1   -1726349.6 
2200    2.4742587   0.22180924 0.00047903582 0.00051631918    2.5291713    184.33228    98.618274    750.46932            0   -1726435.3   0.14285122   -1726422.3   0.28570704   -1726385.2   0.42856846   -1726290.9   0.57142941     -1726251   0.71428949     -1726302   0.85714703   -1726337.7            1   -1726349.6 
2300    2.3947113   0.21270189 0.00044474916 0.00048004011    2.4436533    180.72179    95.007785    752.12707            0   -1726435.3   0.14285168   -1726422.5   0.28570776   -1726386.1   0.42856916   -1726294.2      0.57143   -1726254.6   0.71428978   -1726303.3   0.85714709   -1726337.9            1   -1726349.6 
2400    2.3560166   0.23859944 0.00041311949 0.00044638097    2.3721052    177.15123    91.437224    753.80937            0   -1726435.3   0.14285284   -1726422.7   0.28570751     -1726387   0.42857083   -1726297.4   0.57142844   -1726258.2   0.71429098   -1726304.5   0.85714631     -1726338            1   -1726349.6 
2500    2.2707303    0.3082846 0.00038749338 0.00041895996    2.3105318    174.04657    88.332569    755.30301            0   -1726435.3   0.14285241   -1726422.8   0.28570893   -1726387.8   0.42857021   -1726300.1   0.57143087   -1726261.3   0.71429018   -1726305.5   0.85714714   -1726338.2            1   -1726349.6 
2600    2.1998061   0.35695628 0.00036351166 0.00039316306     2.236525    170.96603    85.252031    756.82734            0   -1726435.3   0.14285276     -1726423   0.28570947   -1726388.5   0.42857073   -1726302.8   0.57143131   -1726264.4   0.71429041   -1726306.5   0.85714719   -1726338.3            1   -1726349.6 
2700    2.1224161   0.32414799 0.00034115302 0.0003689822    2.1524641     167.9594    82.245396    758.37914            0   -1726435.3   0.14285301   -1726423.2   0.28571014   -1726389.3   0.42857113   -1726305.5     0.571432   -1726267.4    0.7142905   -1726307.5   0.85714733   -1726338.4            1   -1726349.6 
2800     2.037744     0.253549 0.00032254802 0.00034875526    2.0697927    165.37351    79.659511    759.78118            0   -1726435.3   0.14285341   -1726423.3   0.28571052   -1726390.1    0.4285717   -1726307.9   0.57143209     -1726270   0.71429076   -1726308.3   0.85714725   -1726338.6            1   -1726349.6 
2900    1.9554029   0.22940203 0.00030554174 0.00033017577    1.9857194    162.95759    77.243589    761.16292            0   -1726435.3   0.14285371   -1726423.4   0.28571101   -1726390.8   0.42857212   -1726310.2   0.57143242   -1726272.4   0.71429089   -1726309.1   0.85714725   -1726338.7            1   -1726349.6 
3000    1.8809185   0.28879904 0.00028950468 0.00031257013    1.9087695    160.63417     74.92017    762.56594            0   -1726435.3   0.14285401   -1726423.6   0.28571152   -1726391.5   0.42857254   -1726312.4   0.57143279   -1726274.7     0.714291   -1726309.9   0.85714727   -1726338.8            1   -1726349.6 
3100    1.8304045   0.36923119 0.00027549934 0.00029712262    1.8569354     158.5406    72.826598     763.8828            0   -1726435.3   0.14285429   -1726423.7   0.28571193   -1726392.3   0.42857293   -1726314.6   0.57143303   -1726276.8   0.71429112   -1726310.6   0.85714726   -1726338.9            1   -1726349.6 
3200     1.790787   0.40050093 0.00026285154 0.00028311083    1.8152844    156.55863    70.844629    765.15703            0   -1726435.3   0.14285453   -1726423.8   0.28571232     -1726393   0.42857325   -1726316.6   0.57143327   -1726278.8   0.71429121   -1726311.3   0.85714725     -1726339            1   -1726349.6 
3300    1.7343579   0.28234664 0.00025071706 0.00026960975    1.7565677    154.57627    68.862264    766.46296            0   -1726435.3   0.14285477     -1726424   0.28571271   -1726393.7    0.4285735   -1726318.6   0.57143345   -1726280.8   0.71429117   -1726311.9    0.8571472   -1726339.1            1   -1726349.6 
3400    1.6702296   0.23061976 0.00024012162 0.00025777247     1.692393    152.81499    67.100984    767.67448            0   -1726435.3   0.14285502   -1726424.1   0.28571306   -1726394.4   0.42857376   -1726320.3   0.57143351   -1726282.5   0.71429115   -1726312.5    0.8571471   -1726339.2            1   -1726349.6 
3500    1.6189225   0.19761044 0.00023047594 0.00024695539     1.640303    151.18254    65.468542    768.84212            0   -1726435.3   0.14285522   -1726424.2   0.28571335     -1726395   0.42857395   -1726321.8   0.57143359   -1726284.2   0.71429111   -1726313.1   0.85714703   -1726339.3            1   -1726349.6 
3600     1.571703   0.17850903 0.00022114871 0.00023645737    1.5896416    149.56817    63.854171    770.03757            0   -1726435.3   0.14285533   -1726424.3    0.2857136   -1726395.7   0.42857401   -1726323.3   0.57143373   -1726285.8   0.71429095   -1726313.7   0.85714699   -1726339.4            1   -1726349.6 
3700     1.527371   0.17293775 0.00021301771 0.00022727465    1.5486624    148.12558    62.411577    771.14074            0   -1726435.3   0.14285551   -1726424.4   0.28571374   -1726396.3   0.42857417   -1726324.5   0.57143364   -1726287.2   0.71429098   -1726314.2   0.85714688   -1726339.5            1   -1726349.6 
3800    1.4934203   0.17682476 0.00020538298 0.00021862583    1.5148047    146.72933    61.015322    772.23656            0   -1726435.3   0.14285565   -1726424.5   0.28571396   -1726396.9   0.42857433   -1726325.7   0.57143373   -1726288.6   0.71429099   -1726314.7   0.85714685   -1726339.6            1   -1726349.6 
3900    1.4617875   0.16843756 0.00019799524 0.00021023244    1.4867337    145.32612     59.61212     773.3603            0   -1726435.3   0.14285583   -1726424.6    0.2857141   -1726397.5    0.4285745   -1726326.9   0.57143365     -1726290   0.71429108   -1726315.3   0.85714675   -1726339.6            1   -1726349.6 
4000    1.4450525   0.15299597 0.00019157513 0.0002029193     1.466399    144.05019    58.336184    774.39465            0   -1726435.3   0.14285591   -1726424.7   0.28571433     -1726398   0.42857458   -1726327.9   0.57143387   -1726291.3   0.71429101   -1726315.7   0.85714679   -1726339.7            1   -1726349.6 
4100     1.428184   0.13232675 0.00018555645 0.00019604784     1.449326    142.79484    57.080837    775.42024            0   -1726435.3   0.14285601   -1726424.8   0.28571449   -1726398.5   0.42857468   -1726328.8   0.57143394   -1726292.5   0.71429102   -1726316.2   0.85714677   -1726339.8            1   -1726349.6 
4200    1.4118961   0.15325244 0.00017973676 0.00018938994     1.433079    141.51742    55.803415    776.46969            0   -1726435.3   0.14285611   -1726424.9   0.28571462   -1726399.1   0.42857478   -1726329.7   0.57143399   -1726293.8   0.71429104   -1726316.6   0.85714674   -1726339.9            1   -1726349.6 
4300    1.3933905    0.1666664 0.00017439708 0.0001832703    1.4136753    140.28614    54.572137    777.48893            0   -1726435.3    0.1428562     -1726425   0.28571477   -1726399.6   0.42857488   -1726330.6   0.57143407   -1726295.1   0.71429104     -1726317   0.85714674     -1726340            1   -1726349.6 
4400    1.3686319   0.16532653 0.00016961053 0.00017777661    1.3888041    139.13931    53.425312    778.45331            0   -1726435.3   0.14285629     -1726425    0.2857149     -1726400   0.42857498   -1726331.4   0.57143412   -1726296.2   0.71429105   -1726317.4   0.85714671     -1726340            1   -1726349.6 
4500    1.3360895   0.14871832 0.00016495535 0.00017242746    1.3561092    137.99537    52.281371    779.44161            0   -1726435.3   0.14285637   -1726425.1   0.28571501   -1726400.5   0.42857506   -1726332.2   0.57143416   -1726297.3   0.71429104   -1726317.8   0.85714668   -1726340.1            1   -1726349.6 
4600    1.2986902   0.12299269 0.00016055861 0.00016737071    1.3204042     136.8971    51.183102    780.42485            0   -1726435.3   0.14285647   -1726425.2    0.2857151     -1726401   0.42857515     -1726333   0.57143412   -1726298.4   0.71429105   -1726318.2   0.85714662   -1726340.2            1   -1726349.6 
4700    1.2677864   0.11965739 0.00015661545 0.00016283288    1.2875818     135.9009    50.186897    781.35168            0   -1726435.3   0.14285651   -1726425.3   0.28571521   -1726401.4   0.42857518   -1726333.7   0.57143419   -1726299.4   0.71429098   -1726318.6    0.8571466   -1726340.2            1   -1726349.6 
4800    1.2372143   0.11769653 0.00015282408 0.00015846833    1.2568601    134.93036    49.216356    782.28694            0   -1726435.3   0.14285656   -1726425.4   0.28571526   -1726401.8   0.42857519   -1726334.3   0.57143416   -1726300.4   0.71429091   -1726318.9   0.85714655   -1726340.3            1   -1726349.6 
4900    1.2487736   0.12652891 0.00014914129 0.00015422859    1.2322785    133.96874    48.254738    783.24064            0   -1726435.3   0.14285642   -1726425.4   0.28571559   -1726402.2   0.42857501     -1726335   0.57143487   -1726301.4   0.71429035   -1726319.3    0.8571468   -1726340.4            1   -1726349.6 
5000    1.1959322   0.14420038 0.00014595078 0.00015055642    1.2151768    133.11243    47.398429    784.10686            0   -1726435.3   0.14285661   -1726425.5   0.28571528   -1726402.6   0.42857509   -1726335.6   0.57143399   -1726302.2   0.71429072   -1726319.6   0.85714642   -1726340.4            1   -1726349.6 
5100     1.186689   0.17270463 0.00014278528 0.00014691478    1.2054851    132.22941    46.515405     785.0064            0   -1726435.3   0.14285662   -1726425.6   0.28571525     -1726403     0.428575   -1726336.2   0.57143388   -1726303.1   0.71429062   -1726319.9   0.85714634   -1726340.5            1   -1726349.6 
5200    1.1912756   0.21252739 0.0001397138 0.00014338401     1.206479    131.32245    45.608452    785.92264            0   -1726435.3   0.14285659   -1726425.6   0.28571523   -1726403.4   0.42857488   -1726336.8   0.57143384     -1726304   0.71429045   -1726320.3   0.85714631   -1726340.6            1   -1726349.6 
5300    1.1910312   0.24011576 0.00013696948 0.00014023253    1.2080695    130.45453    44.740525    786.78129            0   -1726435.3    0.1428566   -1726425.7   0.28571516   -1726403.7    0.4285748   -1726337.4   0.57143365   -1726304.9   0.71429041   -1726320.6   0.85714621   -1726340.6            1   -1726349.6 
5400    1.1717319   0.22079215 0.00013437898 0.0001372613    1.1884797    129.59506    43.881059    787.62938            0   -1726435.3    0.1428566   -1726425.8   0.28571513     -1726404   0.42857473   -1726337.9   0.57143355   -1726305.7   0.71429031   -1726320.9   0.85714614   -1726340.7            1   -1726349.6 
5500    1.1573101   0.15446279 0.00013178734 0.00013429319    1.1486414    128.73333    43.019329    788.51668            0   -1726435.3    0.1428565   -1726425.8   0.28571536   -1726404.4    0.4285746   -1726338.4   0.57143406   -1726306.6   0.71428982   -1726321.2   0.85714632   -1726340.7            1   -1726349.6 
5600    1.0958998   0.13173932 0.00012951882 0.00013169953    1.1135553    127.98998    42.275976    789.32789            0   -1726435.3   0.14285664   -1726425.9   0.28571514   -1726404.7   0.42857465   -1726338.9    0.5714334   -1726307.4   0.71429013   -1726321.6   0.85714602   -1726340.8            1   -1726349.6 
5700    1.0612973   0.12294241 0.0001272641 0.00012912645    1.0797239    127.25963    41.545633      790.168            0   -1726435.3   0.14285665     -1726426   0.28571514     -1726405   0.42857461   -1726339.4   0.57143332   -1726308.1   0.71429002   -1726321.9   0.85714596   -1726340.9            1   -1726349.6 
5800    1.0286706   0.11599645 0.00012510485 0.00012666755    1.0476434    126.56804    40.854037    791.00663            0   -1726435.3   0.14285666     -1726426   0.28571514   -1726405.3   0.42857457   -1726339.8   0.57143325   -1726308.8   0.71428991   -1726322.2    0.8571459   -1726340.9            1   -1726349.6 
5900   0.99927467   0.12457429 0.00012314768 0.00012444384    1.0199125    125.94666    40.232655    791.79805            0   -1726435.3   0.14285669   -1726426.1   0.28571515   -1726405.5   0.42857455   -1726340.3   0.57143316   -1726309.4   0.71428984   -1726322.5   0.85714583     -1726341            1   -1726349.6 
6000   0.97228831   0.12619059 0.00012121558 0.00012225394   0.99398625    125.33697    39.622967    792.61042            0   -1726435.3   0.14285671   -1726426.1   0.28571515   -1726405.8   0.42857452   -1726340.8   0.57143308     -1726310   0.71428975   -1726322.9   0.85714577   -1726341.1            1   -1726349.6 
6100   0.95138809   0.12083586 0.00011932795 0.00012012018   0.96998974    124.74274    39.028742    793.43631            0   -1726435.3    0.1428567   -1726426.2   0.28571519   -1726406.1   0.42857447   -1726341.2    0.5714331   -1726310.6   0.71428956   -1726323.2   0.85714575   -1726341.1            1   -1726349.6 
6200   0.92670036   0.11090063 0.0001176388 0.00011821611   0.95047398    124.21009    38.496092    794.20446            0   -1726435.3   0.14285673   -1726426.3   0.28571515   -1726406.3   0.42857445   -1726341.7   0.57143292   -1726311.1   0.71428956   -1726323.5   0.85714565   -1726341.2            1   -1726349.6 
6300   0.90951527   0.13431761 0.00011601522 0.00011639118   0.93416626    123.69398    37.979974    794.97034            0   -1726435.3   0.14285674   -1726426.3   0.28571514   -1726406.6    0.4285744   -1726342.2   0.57143283   -1726311.6   0.71428947   -1726323.8   0.85714559   -1726341.3            1   -1726349.6 
6400   0.89429843   0.16661875 0.00011442014 0.00011460373   0.91970378    123.18018    37.466175    795.75131            0   -1726435.3   0.14285675   -1726426.4   0.28571513   -1726406.8   0.42857436   -1726342.6   0.57143275   -1726312.2   0.71428939   -1726324.2   0.85714553   -1726341.4            1   -1726349.6 
6500   0.88099775   0.18466303 0.00011290296 0.00011290901   0.90796523    122.68191    36.967906    796.52279            0   -1726435.3   0.14285676   -1726426.4   0.28571511   -1726407.1   0.42857433   -1726343.1   0.57143267   -1726312.7   0.71428935   -1726324.5   0.85714548   -1726341.5            1   -1726349.6 
6600   0.87077474   0.18254547 0.00011152069 0.00011136997   0.89691684    122.21895    36.504945    797.25233            0   -1726435.3   0.14285676   -1726426.5   0.28571512   -1726407.3   0.42857431   -1726343.6   0.57143266   -1726313.1   0.71428928   -1726324.8   0.85714545   -1726341.6            1   -1726349.6 
6700   0.86035617   0.15224115 0.00011012863 0.00010982518    0.8869713    121.74285    36.028852    798.01462            0   -1726435.3   0.14285678   -1726426.5   0.28571512   -1726407.5    0.4285743   -1726344.1   0.57143263   -1726313.6   0.71428925   -1726325.2   0.85714542   -1726341.7            1   -1726349.6 
6800   0.84833086   0.11483289 0.00010882794 0.00010838678   0.87488366    121.28844    35.574437    798.75328            0   -1726435.3    0.1428568   -1726426.6   0.28571515   -1726407.7   0.42857432   -1726344.6   0.57143263   -1726314.1   0.71428924   -1726325.5    0.8571454   -1726341.8            1   -1726349.6 
6900   0.83507259   0.10207255 0.00010761183 0.00010704657   0.86170829     120.8578    35.143795    799.46806            0   -1726435.3   0.14285683   -1726426.6   0.28571518   -1726407.9   0.42857434     -1726345   0.57143264   -1726314.5   0.71428922   -1726325.8   0.85714538   -1726341.9            1   -1726349.6 
7000   0.82038238  0.085531034 0.00010639295 0.00010570807   0.84723497    120.42201    34.708013    800.20892            0   -1726435.3   0.14285686   -1726426.7   0.28571523   -1726408.1   0.42857438   -1726345.4   0.57143267   -1726314.9   0.71428924   -1726326.1   0.85714538     -1726342            1   -1726349.6 
7100   0.80577055  0.074901279 0.00010524157 0.00010444834   0.83386802    120.00796    34.293962     800.9323            0   -1726435.3   0.14285691   -1726426.7   0.28571528   -1726408.3   0.42857445   -1726345.8    0.5714327   -1726315.3   0.71428929   -1726326.3   0.85714537   -1726342.1            1   -1726349.6 
7200    0.7945183  0.075236458 0.00010418277 0.00010329409   0.82211881    119.62397     33.90997    801.61841            0   -1726435.3   0.14285695   -1726426.8   0.28571536   -1726408.5   0.42857452   -1726346.1   0.57143278   -1726315.7   0.71428931   -1726326.6   0.85714539   -1726342.2            1   -1726349.6 
7300   0.78384994  0.076116037 0.0001031246 0.00010214471   0.81196333    119.23578    33.521778    802.32525            0   -1726435.3     0.142857   -1726426.8   0.28571543   -1726408.7   0.42857459   -1726346.5   0.57143284   -1726316.1   0.71428935   -1726326.9    0.8571454   -1726342.3            1   -1726349.6 
7400   0.76436761  0.075112429 0.0001020816 0.00010101613   0.80337225    118.84738    33.133377    803.04432            0   -1726435.3   0.14285716   -1726426.8   0.28571512   -1726408.9   0.42857463   -1726346.8   0.57143196   -1726316.5   0.71429003   -1726327.1   0.85714503   -1726342.3            1   -1726349.6 
7500   0.76900917   0.08011196 0.00010115028 0.00010001214   0.79790123     118.4928    32.778801     803.7053            0   -1726435.3   0.14285707   -1726426.9   0.28571554     -1726409   0.42857469   -1726347.2   0.57143291   -1726316.9   0.71428939   -1726327.4    0.8571454   -1726342.4            1   -1726349.6 
7600   0.76585522  0.086811788 0.00010023862 9.9032932e-05   0.79507647    118.13649    32.422485    804.37165            0   -1726435.3   0.14285711   -1726426.9   0.28571559   -1726409.2   0.42857475   -1726347.5   0.57143295   -1726317.2   0.71428942   -1726327.6    0.8571454   -1726342.4            1   -1726349.6 
7700   0.76479904  0.092938051  9.93287e-05 9.805924e-05   0.79428637    117.76753    32.053524    805.05655            0   -1726435.3   0.14285714     -1726427   0.28571564   -1726409.4   0.42857479   -1726347.9   0.57143298   -1726317.6   0.71428943   -1726327.8    0.8571454   -1726342.5            1   -1726349.6 
7800   0.76338953   0.10194785 9.8456802e-05 9.7129785e-05   0.79629184    117.39897     31.68497    805.73258            0   -1726435.3   0.14285718     -1726427   0.28571564   -1726409.6   0.42857481   -1726348.2   0.57143291   -1726317.9   0.71428949   -1726328.1   0.85714536   -1726342.6            1   -1726349.6 
7900   0.76691377   0.11590345 9.7668006e-05 9.6292008e-05   0.79718576     117.0503    31.336302     806.3618            0   -1726435.3   0.14285719   -1726427.1    0.2857157   -1726409.7   0.42857483   -1726348.5   0.57143299   -1726318.3   0.71428943   -1726328.3   0.85714538   -1726342.6            1   -1726349.6 
8000   0.76612355    0.1215975 9.6875835e-05 9.5453689e-05   0.79696437    116.68595    30.971952    807.01158            0   -1726435.3   0.14285722   -1726427.1   0.28571573   -1726409.9   0.42857485   -1726348.8     0.571433   -1726318.7   0.71428942   -1726328.5   0.85714537   -1726342.7            1   -1726349.6 
8100   0.75677514   0.11527669 9.6099216e-05 9.463487e-05   0.79156735    116.31827    30.604265    807.66694            0   -1726435.3   0.14285725   -1726427.1   0.28571572     -1726410   0.42857486   -1726349.2   0.57143292     -1726319   0.71428947   -1726328.7   0.85714532   -1726342.7            1   -1726349.6 
8200   0.74771858   0.10386871 9.5393011e-05 9.3892975e-05   0.78095882    115.97975    30.265746    808.27932            0   -1726435.3   0.14285726   -1726427.2   0.28571578   -1726410.2   0.42857488   -1726349.5     0.571433   -1726319.4   0.71428941   -1726328.9   0.85714534   -1726342.8            1   -1726349.6 
8300   0.73271173  0.093763906 9.4678652e-05 9.3145175e-05   0.76772538    115.63856    29.924557    808.91552            0   -1726435.3   0.14285728   -1726427.2   0.28571579   -1726410.3   0.42857488   -1726349.8   0.57143298   -1726319.7   0.71428939   -1726329.1   0.85714532   -1726342.9            1   -1726349.6 
8400   0.70540298   0.10519128 9.3970049e-05 9.2406104e-05   0.75370629    115.30321    29.589213    809.56463            0   -1726435.3   0.14285739   -1726427.2   0.28571548   -1726410.5   0.42857483   -1726350.1   0.57143211     -1726320   0.71429001   -1726329.4   0.85714494   -1726342.9            1   -1726349.6 
8500    0.7067823   0.12150274 9.3306434e-05 9.171645e-05   0.74472206       114.99    29.275996    810.18845            0   -1726435.3    0.1428573   -1726427.3   0.28571582   -1726410.6   0.42857487   -1726350.4   0.57143294   -1726320.4   0.71428933   -1726329.6   0.85714527     -1726343            1   -1726349.6 
8600   0.70367329   0.12738818 9.2699187e-05 9.1087529e-05   0.74255748    114.69817    28.984163    810.77497            0   -1726435.3   0.14285731   -1726427.3   0.28571581   -1726410.7   0.42857485   -1726350.7    0.5714329   -1726320.6   0.71428929   -1726329.7   0.85714524   -1726343.1            1   -1726349.6 
8700   0.70659519   0.12160721 9.2095555e-05 9.0464424e-05   0.74567068    114.39757    28.683567    811.37315            0   -1726435.3   0.14285732   -1726427.3   0.28571582   -1726410.9   0.42857485   -1726350.9   0.57143289   -1726320.9   0.71428928   -1726329.9   0.85714523   -1726343.2            1   -1726349.6 
8800   0.71467667   0.11337191 9.1490482e-05 8.984194e-05   0.75254461    114.08005    28.366049    811.98895            0   -1726435.3   0.14285733   -1726427.4   0.28571585     -1726411   0.42857486   -1726351.2   0.57143293   -1726321.3   0.71428927   -1726330.1   0.85714523   -1726343.2            1   -1726349.6 
8900   0.71981027   0.11864491 9.0910317e-05 8.9247088e-05   0.75908426    113.75695    28.042949    812.59539            0   -1726435.3   0.14285736   -1726427.4   0.28571586   -1726411.1   0.42857488   -1726351.5    0.5714329   -1726321.6   0.71428931   -1726330.3   0.85714522   -1726343.3            1   -1726349.6 
9000   0.72405613   0.13801608 9.0383533e-05 8.8708693e-05   0.76248578     113.4482    27.734197    813.16022            0   -1726435.3   0.14285738   -1726427.5   0.28571589   -1726411.3   0.42857491   -1726351.8   0.57143294   -1726321.9   0.71428932   -1726330.5   0.85714523   -1726343.3            1   -1726349.6 
9100   0.72366469   0.14954108 8.9849122e-05 8.8164197e-05   0.76197704    113.12215    27.408147    813.74763            0   -1726435.3   0.14285739   -1726427.5   0.28571592   -1726411.4   0.42857493     -1726352   0.57143296   -1726322.2   0.71428932   -1726330.6   0.85714522   -1726343.4            1   -1726349.6 
9200   0.71279566   0.14961268 8.9331423e-05 8.7638373e-05   0.75142689    112.80085    27.086843    814.33082            0   -1726435.3   0.14285742   -1726427.5   0.28571595   -1726411.5   0.42857496   -1726352.3   0.57143298   -1726322.5   0.71428933   -1726330.8   0.85714522   -1726343.4            1   -1726349.6 
9300   0.69295546   0.13221545 8.8847366e-05 8.7148192e-05   0.73301777    112.50517    26.791166    814.88942            0   -1726435.3   0.14285744   -1726427.5   0.28571598   -1726411.6     0.428575   -1726352.5   0.57143301   -1726322.8   0.71428936     -1726331   0.85714522   -1726343.5            1   -1726349.6 
9400   0.67888853   0.10820669 8.8351961e-05 8.6648006e-05   0.71358837    112.21277    26.498764    815.47508            0   -1726435.3   0.14285745   -1726427.6   0.28571607   -1726411.7   0.42857505   -1726352.8   0.57143317   -1726323.1   0.71428926   -1726331.1   0.85714528   -1726343.5            1   -1726349.6 
9500   0.65794449  0.087028373 8.7900922e-05 8.6193928e-05   0.70066713    111.95365     26.23965    816.02154            0   -1726435.3   0.14285748   -1726427.6   0.28571603   -1726411.8   0.42857504     -1726353   0.57143304   -1726323.4   0.71428937   -1726331.3   0.85714522   -1726343.6            1   -1726349.6 
9600   0.64605104  0.080060836 8.7450198e-05 8.5741423e-05   0.68976997    111.69803    25.984032     816.5808            0   -1726435.3   0.14285749   -1726427.6   0.28571605     -1726412   0.42857505   -1726353.3   0.57143304   -1726323.6   0.71428937   -1726331.4   0.85714521   -1726343.6            1   -1726349.6 
9700   0.62590297  0.074695146 8.6993522e-05 8.5284227e-05   0.68134995    111.44042     25.72642    817.16216            0   -1726435.3   0.14285755   -1726427.7   0.28571592   -1726412.1   0.42857504   -1726353.5   0.57143274   -1726323.9   0.71428961   -1726331.5   0.85714509   -1726343.7            1   -1726349.6 
9800   0.62897564  0.072628114 8.6582673e-05 8.4874015e-05   0.67411997      111.208    25.494001    817.69824            0   -1726435.3   0.14285752   -1726427.7   0.28571607   -1726412.2   0.42857508   -1726353.8   0.57143306   -1726324.1   0.71428938   -1726331.7   0.85714521   -1726343.7            1   -1726349.6 
9900    0.6223886  0.087863504 8.6180498e-05 8.4473479e-05   0.66806476     110.9794      25.2654    818.23634            0   -1726435.3   0.14285752   -1726427.7   0.28571607   -1726412.3   0.42857507     -1726354   0.57143305   -1726324.4   0.71428938   -1726331.8    0.8571452   -1726343.8            1   -1726349.6 
10000   0.61515654   0.11279715 8.5776059e-05  8.40717e-05   0.66124846    110.74867    25.034671     818.7917            0   -1726435.3   0.14285752   -1726427.8   0.28571607   -1726412.4   0.42857507   -1726354.3   0.57143305   -1726324.6   0.71428937   -1726331.9   0.85714519   -1726343.8            1   -1726349.6 
10100   0.60955069    0.1439566 8.5385353e-05 8.3684524e-05   0.65502734    110.52456    24.810555     819.3429            0   -1726435.3   0.14285752   -1726427.8   0.28571608   -1726412.5   0.42857507   -1726354.5   0.57143307   -1726324.8   0.71428936   -1726332.1    0.8571452   -1726343.9            1   -1726349.6 
10200   0.60234709   0.17735569 8.5021688e-05 8.332499e-05   0.64938217    110.31499    24.600987    819.87011            0   -1726435.3   0.14285752   -1726427.8   0.28571606   -1726412.6   0.42857506   -1726354.8   0.57143304     -1726325   0.71428937   -1726332.2   0.85714518     -1726344            1   -1726349.6 
10300   0.60397966   0.20263573 8.4648492e-05 8.2956877e-05   0.64544754    110.09772    24.383717    820.42627            0   -1726435.3    0.1428575   -1726427.8   0.28571607   -1726412.7   0.42857504     -1726355   0.57143311   -1726325.2   0.71428923   -1726332.3    0.8571452   -1726344.1            1   -1726349.6 
10400   0.62226743   0.21048511 8.4304872e-05 8.2618686e-05   0.64379696    109.89384    24.179839    820.95354            0   -1726435.3   0.14285748   -1726427.9   0.28571599   -1726412.8   0.42857497   -1726355.3   0.57143295   -1726325.4   0.71428928   -1726332.4   0.85714512   -1726344.2            1   -1726349.6 
10500   0.65832937    0.2484831 8.3960415e-05 8.228039e-05   0.64256254    109.68443    23.970425    821.49811            0   -1726435.3   0.14285748   -1726427.9   0.28571598   -1726412.9   0.42857498   -1726355.6   0.57143297   -1726325.7   0.71428928   -1726332.5   0.85714512   -1726344.4            1   -1726349.6 
10600   0.68973585   0.28803243 8.3627545e-05 8.1954149e-05   0.64355599    109.47658    23.762573    822.04051            0   -1726435.3   0.14285749   -1726427.9     0.285716     -1726413   0.42857503   -1726355.9   0.57143304   -1726325.9   0.71428935   -1726332.7   0.85714515   -1726344.5            1   -1726349.6 
10700    0.6874656   0.26257986 8.3307282e-05 8.1640883e-05   0.64602926    109.26951    23.555506    822.57706            0   -1726435.3   0.14285751   -1726427.9   0.28571604   -1726413.1   0.42857509   -1726356.3   0.57143312   -1726326.1   0.71428942   -1726332.8   0.85714519   -1726344.6            1   -1726349.6 
10800    0.6624305   0.19588403 8.2984059e-05 8.1325333e-05   0.64909738    109.05235    23.338345    823.13175            0   -1726435.3   0.14285753     -1726428    0.2857161   -1726413.2   0.42857513   -1726356.6   0.57143323   -1726326.3   0.71428938   -1726332.9   0.85714524   -1726344.7            1   -1726349.6 
10900   0.64670408   0.14277517 8.2688049e-05 8.1036882e-05   0.65119088    108.84527    23.131271    823.65096            0   -1726435.3   0.14285754     -1726428   0.28571607   -1726413.3   0.42857511   -1726356.9   0.57143314   -1726326.5   0.71428945     -1726333   0.85714521   -1726344.7            1   -1726349.6 
11000   0.63495614    0.1074068 8.2383794e-05 8.0740916e-05   0.65240882    108.62443    22.910424    824.19627            0   -1726435.3   0.14285753     -1726428   0.28571606   -1726413.4   0.42857509   -1726357.2   0.57143313   -1726326.7   0.71428943   -1726333.1   0.85714521   -1726344.8            1   -1726349.6 
11100   0.62836462  0.087385282 8.2095661e-05 8.0461113e-05   0.65363035    108.40807    22.694072    824.72479            0   -1726435.3   0.14285753     -1726428   0.28571605   -1726413.4   0.42857507   -1726357.5   0.57143311   -1726326.9   0.71428943   -1726333.2    0.8571452   -1726344.8            1   -1726349.6 
11200    0.6247697  0.086565821 8.1817113e-05 8.0191054e-05   0.65501013    108.19164    22.477633    825.24767            0   -1726435.3   0.14285753   -1726428.1   0.28571604   -1726413.5   0.42857506   -1726357.8    0.5714331   -1726327.2   0.71428944   -1726333.3    0.8571452   -1726344.9            1   -1726349.6 
11300   0.64306404   0.09100987 8.1532519e-05 7.9915566e-05   0.65923346    107.96113    22.247124    825.79451            0   -1726435.3   0.14285752   -1726428.1   0.28571622   -1726413.6   0.42857516   -1726358.1   0.57143354   -1726327.4   0.71428908   -1726333.4   0.85714539   -1726344.9            1   -1726349.6 
11400    0.6247551  0.096034404 8.1274405e-05 7.9666083e-05    0.6673108    107.74078    22.026779     826.3032            0   -1726435.3   0.14285754   -1726428.1   0.28571605   -1726413.7   0.42857507   -1726358.4   0.57143314   -1726327.6   0.71428947   -1726333.5   0.85714522     -1726345            1   -1726349.6 
11500     0.636071   0.10472654 8.1009786e-05 7.9410671e-05   0.67691944        107.5    21.786002    826.83684            0   -1726435.3   0.14285754   -1726428.1   0.28571606   -1726413.8   0.42857509   -1726358.7   0.57143317   -1726327.8   0.71428948   -1726333.6   0.85714523     -1726345            1   -1726349.6 
11600   0.64430055   0.11205288 8.0757542e-05 7.9167534e-05   0.68502887    107.25572    21.541714    827.35788            0   -1726435.3   0.14285755   -1726428.2   0.28571606   -1726413.9    0.4285751     -1726359   0.57143318   -1726328.1   0.71428951   -1726333.7   0.85714523   -1726345.1            1   -1726349.6 
11700   0.64838695   0.11588238 8.0511335e-05 7.8930518e-05   0.68881083    107.00485    21.290846     827.8783            0   -1726435.3   0.14285756   -1726428.2   0.28571608   -1726413.9   0.42857512   -1726359.3    0.5714332   -1726328.3   0.71428953   -1726333.8   0.85714524   -1726345.1            1   -1726349.6 
11800   0.64878467   0.11182459 8.0262934e-05 7.8691686e-05   0.68456222    106.74538    21.031378    828.41522            0   -1726435.3   0.14285757   -1726428.2   0.28571614     -1726414   0.42857517   -1726359.5   0.57143333   -1726328.6   0.71428946   -1726333.9   0.85714529   -1726345.1            1   -1726349.6 
11900   0.63103653   0.10757552 8.0034845e-05 7.8472635e-05    0.6735768    106.50923    20.795228    828.91896            0   -1726435.3   0.14285758   -1726428.2   0.28571612   -1726414.1   0.42857518   -1726359.8   0.57143326   -1726328.8   0.71428956     -1726334   0.85714526   -1726345.2            1   -1726349.6 
12000   0.61761381   0.10099235 7.9799357e-05 7.8246725e-05   0.66139066    106.27225    20.558252    829.44967            0   -1726435.3    0.1428576   -1726428.3   0.28571615   -1726414.1   0.42857521     -1726360   0.57143329   -1726329.1   0.71428957   -1726334.1   0.85714527   -1726345.2            1   -1726349.6 
12100   0.60529002  0.096317974 7.9575754e-05 7.8032439e-05   0.65139654    106.05264    20.338638    829.96404            0   -1726435.3   0.14285761   -1726428.3   0.28571616   -1726414.2   0.42857523   -1726360.3    0.5714333   -1726329.3   0.71428959   -1726334.1   0.85714526   -1726345.2            1   -1726349.6 
12200   0.59707017  0.092960547 7.9359804e-05 7.7825685e-05   0.64466885    105.84471    20.130711    830.47082            0   -1726435.3   0.14285762   -1726428.3   0.28571617   -1726414.3   0.42857524   -1726360.5   0.57143331   -1726329.5    0.7142896   -1726334.2   0.85714527   -1726345.3            1   -1726349.6 
12300   0.59058409  0.087444696 7.9140335e-05 7.7615755e-05   0.63906604    105.63437    19.920372    830.99662            0   -1726435.3   0.14285763   -1726428.3   0.28571619   -1726414.4   0.42857526   -1726360.7   0.57143334   -1726329.7   0.71428961   -1726334.3   0.85714528   -1726345.3            1   -1726349.6 
12400   0.58387837  0.081516817 7.8930731e-05 7.7415433e-05   0.63390909    105.43467     19.72067    831.50925            0   -1726435.3   0.14285763   -1726428.3   0.28571619   -1726414.4   0.42857526     -1726361   0.57143334   -1726329.9   0.71428962   -1726334.4   0.85714528   -1726345.4            1   -1726349.6 
12500   0.57831994  0.075665053 7.873098e-05 7.7224678e-05   0.62967819    105.24472    19.530723    832.00766            0   -1726435.3   0.14285764   -1726428.4   0.28571619   -1726414.5   0.42857526   -1726361.2   0.57143334   -1726330.1   0.71428963   -1726334.5   0.85714528   -1726345.4            1   -1726349.6 
12600   0.57438713  0.080006232 7.8525915e-05 7.7028992e-05    0.6247558    105.04966    19.335654    832.52969            0   -1726435.3   0.14285764   -1726428.4    0.2857162   -1726414.5   0.42857527   -1726361.4   0.57143337   -1726330.3   0.71428959   -1726334.5   0.85714529   -1726345.4            1   -1726349.6 
12700   0.56709855   0.07889074 7.8333585e-05 7.6845585e-05   0.62082814    104.86736    19.153353    833.02932            0   -1726435.3   0.14285764   -1726428.4   0.28571619   -1726414.6   0.42857525   -1726361.6   0.57143333   -1726330.5   0.71428963   -1726334.6   0.85714527   -1726345.4            1   -1726349.6 
12800   0.56272961  0.072234897 7.8145256e-05 7.6666104e-05   0.61761515    104.68867    18.974667    833.52834            0   -1726435.3   0.14285764   -1726428.4   0.28571618   -1726414.7   0.42857525   -1726361.9   0.57143333   -1726330.7   0.71428963   -1726334.7   0.85714527   -1726345.5            1   -1726349.6 
12900   0.56068699  0.068605861 7.7954851e-05 7.6484749e-05   0.61616562    104.50662    18.792621     834.0432            0   -1726435.3   0.14285764   -1726428.4   0.28571618   -1726414.7   0.42857524   -1726362.1   0.57143333   -1726330.8   0.71428963   -1726334.7   0.85714527   -1726345.5            1   -1726349.6 
13000    0.5622828  0.068527434 7.776927e-05 7.6308083e-05   0.61547223    104.32659    18.612586    834.55538            0   -1726435.3   0.14285764   -1726428.5   0.28571619   -1726414.8   0.42857525   -1726362.3   0.57143338     -1726331   0.71428958   -1726334.8    0.8571453   -1726345.5            1   -1726349.6 
13100   0.55915654  0.067586219 7.7596607e-05 7.614379e-05   0.61589178    104.15608    18.442082    835.04164            0   -1726435.3   0.14285763   -1726428.5   0.28571616   -1726414.8   0.42857522   -1726362.5   0.57143332   -1726331.2   0.71428963   -1726334.9   0.85714527   -1726345.6            1   -1726349.6 
13200   0.56086726  0.063808897 7.7420871e-05 7.5976643e-05   0.61787259    103.97819    18.264189    835.54647            0   -1726435.3   0.14285763   -1726428.5   0.28571615   -1726414.9    0.4285752   -1726362.7   0.57143332   -1726331.4   0.71428964   -1726334.9   0.85714527   -1726345.6            1   -1726349.6 
13300   0.59219967  0.061087947 7.724374e-05 7.5808234e-05    0.6207961    103.79287    18.078872    836.06567            0   -1726435.3   0.14285763   -1726428.5    0.2857163     -1726415   0.42857533   -1726362.9    0.5714337   -1726331.5   0.71428925     -1726335   0.85714547   -1726345.6            1   -1726349.6 
13400   0.56856787   0.06052854 7.7082973e-05 7.5655433e-05    0.6253243    103.61836    17.904356    836.54719            0   -1726435.3   0.14285762   -1726428.5   0.28571612     -1726415   0.42857516   -1726363.1    0.5714333   -1726331.7   0.71428963   -1726335.1   0.85714527   -1726345.6            1   -1726349.6 
13500   0.57409168  0.068675433 7.691975e-05 7.5500339e-05     0.630486    103.43314    17.719138    837.04551            0   -1726435.3   0.14285761   -1726428.6   0.28571609   -1726415.1   0.42857513   -1726363.3   0.57143328   -1726331.9   0.71428962   -1726335.1   0.85714526   -1726345.7            1   -1726349.6 
13600   0.62513704  0.075931252 7.6753414e-05 7.5342325e-05   0.63802167    103.23405    17.520045    837.56339            0   -1726435.3   0.14285763   -1726428.6    0.2857163   -1726415.1   0.42857531   -1726363.5    0.5714338   -1726332.1   0.71428904   -1726335.2   0.85714554   -1726345.7            1   -1726349.6 
13700   0.59112148  0.079416045 7.6602717e-05 7.5199196e-05   0.64576999    103.04324    17.329235    838.04328            0   -1726435.3   0.14285758   -1726428.6   0.28571603   -1726415.2   0.42857504   -1726363.7   0.57143322   -1726332.3   0.71428958   -1726335.2   0.85714525   -1726345.7            1   -1726349.6 
13800   0.60114568  0.082391743 7.6448904e-05 7.5053127e-05   0.65465993    102.83622    17.122223    838.54239            0   -1726435.3   0.14285756   -1726428.6   0.28571599   -1726415.2   0.42857499   -1726363.9   0.57143318   -1726332.5   0.71428956   -1726335.3   0.85714523   -1726345.7            1   -1726349.6 
13900   0.61409536  0.098899248 7.6295111e-05 7.4907094e-05   0.66269635    102.61617    16.902166    839.05174            0   -1726435.3   0.14285754   -1726428.6   0.28571598   -1726415.3   0.42857497   -1726364.1   0.57143322   -1726332.7   0.71428947   -1726335.4   0.85714526   -1726345.8            1   -1726349.6 
14000   0.61792752   0.12652803 7.6152459e-05 7.477165e-05   0.66969286    102.40058    16.686575    839.53377            0   -1726435.3   0.14285752   -1726428.6   0.28571591   -1726415.3   0.42857489   -1726364.3    0.5714331   -1726332.9   0.71428951   -1726335.4    0.8571452   -1726345.8            1   -1726349.6 
14100   0.62456231   0.15905471 7.6004996e-05 7.4631641e-05   0.67455556     102.1667    16.452699    840.04187            0   -1726435.3    0.1428575   -1726428.7   0.28571588   -1726415.4   0.42857484   -1726364.5   0.57143308   -1726333.2   0.71428945   -1726335.5    0.8571452   -1726345.8            1   -1726349.6 
14200   0.62804539   0.18031113  7.58651e-05 7.4498816e-05   0.67866995    101.93567    16.221671    840.53345            0   -1726435.3   0.14285748   -1726428.7   0.28571583   -1726415.4   0.42857478   -1726364.7   0.57143301   -1726333.4   0.71428944   -1726335.6   0.85714517   -1726345.8            1   -1726349.6 
14300   0.62868738   0.16551676 7.5727117e-05 7.4367801e-05   0.67911453    101.69991     15.98591    841.02742            0   -1726435.3   0.14285747   -1726428.7    0.2857158   -1726415.4   0.42857473   -1726364.8   0.57143297   -1726333.6    0.7142894   -1726335.8   0.85714515   -1726345.9            1   -1726349.6 
14400   0.63110809   0.12441111 7.5587347e-05 7.423508e-05   0.67644194    101.45703    15.743026    841.53679            0   -1726435.3   0.14285746   -1726428.7   0.28571582   -1726415.5   0.42857474     -1726365   0.57143303   -1726333.9   0.71428928   -1726335.9   0.85714519   -1726345.9            1   -1726349.6 
14500   0.62038271   0.12407725 7.5458002e-05 7.4112244e-05   0.67141463    101.23116    15.517162    842.01658            0   -1726435.3   0.14285745   -1726428.7   0.28571576   -1726415.5   0.42857467   -1726365.2    0.5714329   -1726334.1   0.71428935   -1726335.9   0.85714512   -1726345.9            1   -1726349.6 
14600   0.61248076   0.14881225 7.5324201e-05 7.3985158e-05   0.66379611    100.99885    15.284845    842.52074            0   -1726435.3   0.14285744   -1726428.7   0.28571574   -1726415.6   0.42857463   -1726365.4   0.57143286   -1726334.3   0.71428928     -1726336    0.8571451     -1726346            1   -1726349.6 
14700   0.60142088   0.16439528 7.5196743e-05 7.3864075e-05   0.65493796    100.78108    15.067082    843.00806            0   -1726435.3   0.14285743   -1726428.8   0.28571571   -1726415.6   0.42857457   -1726365.5   0.57143278   -1726334.6   0.71428923   -1726336.1   0.85714505   -1726346.1            1   -1726349.6 
14800   0.59337007   0.15343343 7.507185e-05 7.3745404e-05    0.6481816    100.57102    14.857019    843.49197            0   -1726435.3   0.14285742   -1726428.8   0.28571569   -1726415.7   0.42857453   -1726365.7   0.57143271   -1726334.8   0.71428918   -1726336.2   0.85714502   -1726346.1            1   -1726349.6 
14900     0.622645   0.12032324 7.4942823e-05 7.3622776e-05   0.64457179     100.3543    14.640297    843.99805            0   -1726435.3   0.14285749   -1726428.8   0.28571588   -1726415.7   0.42857475   -1726365.9   0.57143314     -1726335    0.7142886   -1726336.2   0.85714527   -1726346.2            1   -1726349.6 
15000   0.58821272  0.092701418 7.4825711e-05 7.3511442e-05   0.64431252    100.15571    14.441712    844.46451            0   -1726435.3   0.14285743   -1726428.8   0.28571567   -1726415.7   0.42857449     -1726366   0.57143265   -1726335.2   0.71428912   -1726336.3   0.85714498   -1726346.2            1   -1726349.6 
15100   0.58854301  0.093820623 7.4706002e-05 7.3397607e-05   0.64484256    99.948448    14.234445    844.94713            0   -1726435.3   0.14285743   -1726428.8   0.28571567   -1726415.8   0.42857447   -1726366.2   0.57143262   -1726335.4   0.71428909   -1726336.4   0.85714496   -1726346.3            1   -1726349.6 
15200   0.62543641  0.092354787 7.4583867e-05 7.3281427e-05   0.64393095    99.732531    14.018529    845.44599            0   -1726435.3    0.1428575   -1726428.8   0.28571589   -1726415.8   0.42857473   -1726366.3   0.57143312   -1726335.6   0.71428846   -1726336.4   0.85714526   -1726346.3            1   -1726349.6 
15300   0.58409293  0.096662336 7.4473064e-05 7.3175991e-05   0.64126684    99.534199    13.820197    845.90609            0   -1726435.3   0.14285742   -1726428.9   0.28571565   -1726415.9   0.42857444   -1726366.5   0.57143257   -1726335.8   0.71428904   -1726336.5   0.85714493   -1726346.3            1   -1726349.6 
15400   0.57786382   0.10586507 7.4359596e-05 7.3067978e-05     0.635864    99.331432     13.61743    846.38314            0   -1726435.3   0.14285742   -1726428.9   0.28571565   -1726415.9   0.42857443   -1726366.6   0.57143255     -1726336   0.71428902   -1726336.6   0.85714492   -1726346.3            1   -1726349.6 
15500   0.58281718     0.104696 7.4244736e-05 7.2958599e-05   0.62836785    99.128294    13.414292    846.87265            0   -1726435.3   0.14285745   -1726428.9   0.28571574   -1726415.9   0.42857453   -1726366.8   0.57143274   -1726336.2   0.71428874   -1726336.6   0.85714504   -1726346.4            1   -1726349.6 
15600   0.55864242    0.0918348 7.413918e-05 7.2858037e-05   0.61927229    98.945684    13.231681    847.32912            0   -1726435.3   0.14285742   -1726428.9   0.28571564     -1726416    0.4285744   -1726366.9    0.5714325   -1726336.4   0.71428897   -1726336.7   0.85714489   -1726346.4            1   -1726349.6 
15700   0.54749799  0.090309743 7.4030537e-05 7.275449e-05   0.60963465    98.762982     13.04898    847.80475            0   -1726435.3   0.14285743   -1726428.9   0.28571563     -1726416   0.42857439   -1726367.1   0.57143247   -1726336.6   0.71428894   -1726336.8   0.85714487   -1726346.4            1   -1726349.6 
15800   0.54064241  0.094146448 7.3922773e-05 7.2651734e-05   0.60262513    98.586161    12.872159    848.28267            0   -1726435.3   0.14285743   -1726428.9   0.28571565     -1726416    0.4285744   -1726367.2   0.57143247   -1726336.8   0.71428889   -1726336.9   0.85714487   -1726346.4            1   -1726349.6 
15900   0.53343884  0.088031777 7.3821849e-05 7.2555455e-05   0.59769778    98.422669    12.708667     848.7359            0   -1726435.3   0.14285743   -1726428.9   0.28571564   -1726416.1   0.42857438   -1726367.4   0.57143243   -1726336.9    0.7142889   -1726336.9   0.85714485   -1726346.5            1   -1726349.6 
16000   0.52845892  0.075775124 7.371751e-05 7.2455868e-05   0.66473514    98.319396    12.605395    849.21023            0   -1726435.3    0.1428574     -1726429   0.28571558   -1726416.1   0.42857428   -1726367.6   0.57143229   -1726337.1   0.71428875     -1726337   0.85714479   -1726346.5            1   -1726349.6 
16100   0.52362694  0.079623746 7.3618183e-05 7.2361017e-05   0.65875676    98.242792     12.52879    849.66715            0   -1726435.3   0.14285737     -1726429    0.2857155   -1726416.1   0.42857416   -1726367.7   0.57143213   -1726337.3   0.71428864   -1726337.1   0.85714471   -1726346.5            1   -1726349.6 
16200    0.5185685  0.085426435 7.3521082e-05 7.2268243e-05   0.65219568    98.166144    12.452142    850.11892            0   -1726435.3   0.14285735     -1726429   0.28571545   -1726416.2   0.42857408   -1726367.9   0.57143202   -1726337.4   0.71428855   -1726337.2   0.85714466   -1726346.5            1   -1726349.6 
16300     0.522477  0.087421209 7.3421009e-05 7.2172578e-05   0.64557401    98.085809    12.371808    850.58981            0   -1726435.3   0.14285736     -1726429   0.28571548   -1726416.2    0.4285741   -1726368.1   0.57143209   -1726337.6   0.71428827   -1726337.3   0.85714473   -1726346.5            1   -1726349.6 
16400    0.5077177  0.085799258 7.3329006e-05 7.2084579e-05   0.63998266    98.010009    12.296008    851.02839            0   -1726435.3   0.14285731     -1726429   0.28571537   -1726416.2   0.42857395   -1726368.2   0.57143186   -1726337.7   0.71428842   -1726337.3   0.85714459   -1726346.6            1   -1726349.6 
16500   0.50455442  0.083293025 7.3236353e-05 7.199591e-05   0.63479367     97.93198    12.217978    851.47521            0   -1726435.3    0.1428573     -1726429   0.28571535   -1726416.3    0.4285739   -1726368.4    0.5714318   -1726337.9   0.71428838   -1726337.4   0.85714457   -1726346.6            1   -1726349.6 
16600   0.53320466  0.074727279 7.3141569e-05 7.1905148e-05   0.63055013    97.850219    12.136218    851.93779            0   -1726435.3   0.14285737     -1726429   0.28571551   -1726416.3   0.42857411   -1726368.6   0.57143217     -1726338   0.71428778   -1726337.5   0.85714485   -1726346.6            1   -1726349.6 
16700   0.50433081  0.083748208 7.3055331e-05 7.1822521e-05   0.62612227    97.772896    12.058894    852.36519            0   -1726435.3   0.14285728   -1726429.1   0.28571529   -1726416.3   0.42857382   -1726368.7    0.5714317   -1726338.2    0.7142883   -1726337.6   0.85714453   -1726346.6            1   -1726349.6 
16800    0.5060103  0.093298496 7.2966045e-05 7.1736923e-05   0.62252057    97.690411    11.976409    852.81274            0   -1726435.3   0.14285727   -1726429.1   0.28571526   -1726416.3   0.42857378   -1726368.9   0.57143166   -1726338.3   0.71428826   -1726337.7   0.85714451   -1726346.6            1   -1726349.6 
16900   0.50551774  0.099476053 7.2879462e-05 7.1653867e-05   0.61946412    97.607173     11.89317    853.25242            0   -1726435.3   0.14285726   -1726429.1   0.28571524   -1726416.4   0.42857374     -1726369   0.57143161   -1726338.5   0.71428823   -1726337.7   0.85714449   -1726346.7            1   -1726349.6 
17000   0.50238743  0.097971374 7.2795378e-05 7.157316e-05   0.61640063    97.523033    11.809031    853.68474            0   -1726435.3   0.14285725   -1726429.1   0.28571522   -1726416.4   0.42857371   -1726369.1   0.57143157   -1726338.7   0.71428821   -1726337.8   0.85714448   -1726346.7            1   -1726349.6 
17100   0.49846409  0.086528496 7.2709366e-05 7.149055e-05     0.612738    97.434288    11.720286     854.1321            0   -1726435.3   0.14285726   -1726429.1   0.28571525   -1726416.4   0.42857374   -1726369.3   0.57143163   -1726338.8   0.71428808   -1726337.9   0.85714453   -1726346.7            1   -1726349.6 
17200   0.48361962  0.070446375 7.2629645e-05 7.1413934e-05   0.60873609    97.350039    11.636037    854.55164            0   -1726435.3   0.14285725   -1726429.1   0.28571521   -1726416.5   0.42857369   -1726369.4   0.57143154   -1726338.9   0.71428818     -1726338   0.85714446   -1726346.7            1   -1726349.6 
17300   0.48008425  0.068405481 7.254619e-05 7.1333681e-05   0.60269507    97.260989    11.546987    854.99517            0   -1726435.3   0.14285728   -1726429.1   0.28571527   -1726416.5   0.42857376   -1726369.5   0.57143164   -1726339.1   0.71428803   -1726338.1   0.85714454   -1726346.7            1   -1726349.6 
17400   0.46657349  0.061572918 7.2468949e-05 7.1259354e-05   0.59496313    97.179481    11.465479    855.41003            0   -1726435.3   0.14285727   -1726429.1   0.28571524   -1726416.5   0.42857371   -1726369.6   0.57143155   -1726339.2    0.7142882   -1726338.2   0.85714446   -1726346.8            1   -1726349.6 
17500   0.46250622  0.056044591 7.2389197e-05 7.1182564e-05   0.58668343    97.097772     11.38377    855.84241            0   -1726435.3   0.14285728   -1726429.2   0.28571526   -1726416.5   0.42857373   -1726369.8   0.57143156   -1726339.3   0.71428819   -1726338.2   0.85714447   -1726346.8            1   -1726349.6 
17600   0.45976404  0.054736603 7.2312608e-05 7.1108772e-05   0.57774671    97.022177    11.308175    856.26171            0   -1726435.3   0.14285729   -1726429.2   0.28571527   -1726416.6   0.42857375   -1726369.9   0.57143157   -1726339.5   0.71428821   -1726338.3   0.85714447   -1726346.8            1   -1726349.6 
17700   0.45814794  0.052425839 7.2236994e-05 7.1035871e-05   0.57012374    96.950093    11.236092    856.67959            0   -1726435.3    0.1428573   -1726429.2   0.28571528   -1726416.6   0.42857375     -1726370   0.57143157   -1726339.6   0.71428822   -1726338.4   0.85714447   -1726346.8            1   -1726349.6 
17800   0.46166808  0.050697834 7.2159988e-05 7.0961581e-05   0.56305928    96.878577    11.164575    857.10914            0   -1726435.3   0.14285732   -1726429.2   0.28571532   -1726416.6    0.4285738   -1726370.1   0.57143163   -1726339.7   0.71428813   -1726338.5   0.85714452   -1726346.8            1   -1726349.6 
17900   0.45868533  0.054383557 7.2088618e-05 7.0892683e-05   0.55695564    96.813356    11.099354    857.51091            0   -1726435.3   0.14285731   -1726429.2   0.28571529   -1726416.6   0.42857375   -1726370.2   0.57143155   -1726339.8    0.7142882   -1726338.5   0.85714445   -1726346.8            1   -1726349.6 
18000   0.45909828  0.057375161 7.201431e-05 7.0820902e-05   0.55143217    96.746057    11.032055    857.93269            0   -1726435.3   0.14285731   -1726429.2   0.28571529   -1726416.7   0.42857375   -1726370.3   0.57143154     -1726340   0.71428817   -1726338.6   0.85714445   -1726346.9            1   -1726349.6 
18100   0.45815572  0.060644884 7.1943389e-05 7.0752348e-05   0.54608288    96.681899    10.967897    858.33881            0   -1726435.3   0.14285731   -1726429.2   0.28571528   -1726416.7   0.42857373   -1726370.4    0.5714315   -1726340.1   0.71428817   -1726338.7   0.85714443   -1726346.9            1   -1726349.6 
18200    0.4559405  0.059745515 7.1873576e-05 7.0684821e-05   0.54116574    96.618882     10.90488    858.74202            0   -1726435.3   0.14285731   -1726429.2   0.28571528   -1726416.7   0.42857371   -1726370.5   0.57143148   -1726340.2   0.71428816   -1726338.7   0.85714442   -1726346.9            1   -1726349.6 
18300   0.47585915   0.05696382 7.1801302e-05 7.0614866e-05   0.53689772    96.553514    10.839512    859.16261            0   -1726435.3   0.14285737   -1726429.3   0.28571542   -1726416.7   0.42857391   -1726370.6   0.57143178   -1726340.3   0.71428762   -1726338.8    0.8571447   -1726346.9            1   -1726349.6 
18400    0.4458667  0.058760715 7.1735501e-05 7.0551136e-05   0.53266361    96.493195    10.779193    859.54949            0   -1726435.3   0.14285731   -1726429.3   0.28571527   -1726416.8   0.42857369   -1726370.7   0.57143144   -1726340.5   0.71428812   -1726338.8    0.8571444   -1726346.9            1   -1726349.6 
18500   0.43866968  0.061381656 7.1667559e-05 7.0485289e-05   0.52910489    96.430116    10.716114    859.95183            0   -1726435.3   0.14285731   -1726429.3   0.28571527   -1726416.8   0.42857369   -1726370.8   0.57143142   -1726340.6   0.71428811   -1726338.9   0.85714439   -1726346.9            1   -1726349.6 
18600   0.42860186  0.063909992 7.1598163e-05 7.0417989e-05   0.52492354    96.365103    10.651101    860.36635            0   -1726435.3    0.1428573   -1726429.3   0.28571525   -1726416.8   0.42857365     -1726371   0.57143136   -1726340.7    0.7142882     -1726339   0.85714434     -1726347            1   -1726349.6 
18700   0.42520168   0.06680902 7.1533581e-05 7.0355315e-05   0.52131519    96.304276    10.590274     860.7552            0   -1726435.3   0.14285732   -1726429.3   0.28571527   -1726416.8   0.42857367   -1726371.1    0.5714314   -1726340.8    0.7142881     -1726339   0.85714438     -1726347            1   -1726349.6 
18800   0.41980257  0.067248568 7.1470279e-05 7.0293846e-05   0.51774344     96.24419    10.530188    861.13949            0   -1726435.3   0.14285732   -1726429.3   0.28571527   -1726416.9   0.42857366   -1726371.2   0.57143139   -1726340.9   0.71428809   -1726339.1   0.85714438     -1726347            1   -1726349.6 
18900   0.41535312  0.066239745 7.140543e-05 7.0230832e-05   0.51371786    96.182538    10.468536    861.53643            0   -1726435.3   0.14285732   -1726429.3   0.28571527   -1726416.9   0.42857366   -1726371.3   0.57143138     -1726341   0.71428808   -1726339.2   0.85714437     -1726347            1   -1726349.6 
19000   0.41175583  0.064164304 7.1341298e-05 7.0168475e-05   0.51016846    96.121316    10.407315    861.93217            0   -1726435.3   0.14285732   -1726429.3   0.28571526   -1726416.9   0.42857364   -1726371.4   0.57143135   -1726341.1   0.71428809   -1726339.2   0.85714435     -1726347            1   -1726349.6 
19100   0.40995232  0.058626971 7.1280997e-05 7.0109805e-05   0.50656457    96.063582     10.34958    862.30713            0   -1726435.3   0.14285732   -1726429.4   0.28571526   -1726416.9   0.42857364   -1726371.5   0.57143135   -1726341.2   0.71428807   -1726339.3   0.85714436     -1726347            1   -1726349.6 
19200   0.40973256   0.06737652 7.1218357e-05 7.0048821e-05   0.50275711    96.003648    10.289646    862.69967            0   -1726435.3   0.14285732   -1726429.4   0.28571526   -1726416.9   0.42857363   -1726371.6   0.57143133   -1726341.3   0.71428807   -1726339.3   0.85714435     -1726347            1   -1726349.6 
19300   0.41063749  0.076580496 7.1157643e-05 6.9989674e-05   0.49953108    95.945375    10.231373    863.08316            0   -1726435.3   0.14285733   -1726429.4   0.28571526     -1726417   0.42857363   -1726371.7   0.57143133   -1726341.4   0.71428806   -1726339.4   0.85714435   -1726347.1            1   -1726349.6 
19400   0.41305919  0.086895514 7.1099041e-05 6.9932549e-05   0.49688875    95.888605    10.174604     863.4562            0   -1726435.3   0.14285733   -1726429.4   0.28571525     -1726417   0.42857362   -1726371.7   0.57143132   -1726341.5   0.71428804   -1726339.5   0.85714434   -1726347.1            1   -1726349.6 
19500   0.41880815   0.10052718 7.1039376e-05 6.9874352e-05   0.49519151     95.82977    10.115768    863.83902            0   -1726435.3   0.14285732   -1726429.4   0.28571525     -1726417    0.4285736   -1726371.8    0.5714313   -1726341.6   0.71428803   -1726339.5   0.85714433   -1726347.1            1   -1726349.6 
19600   0.42308457   0.10937243 7.0979083e-05 6.9815504e-05   0.49439917    95.768347    10.054346    864.22915            0   -1726435.3   0.14285732   -1726429.4   0.28571523     -1726417   0.42857357   -1726371.9   0.57143126   -1726341.7   0.71428803   -1726339.6   0.85714431   -1726347.1            1   -1726349.6 
19700   0.42348079   0.10934893 7.0921376e-05 6.9759145e-05   0.49406288    95.707221    9.9932193    864.60573            0   -1726435.3   0.14285731   -1726429.4   0.28571522     -1726417   0.42857355     -1726372   0.57143124   -1726341.8     0.714288   -1726339.6   0.85714431   -1726347.1            1   -1726349.6 
19800   0.41807864  0.098934875 7.0866194e-05 6.9705219e-05   0.49545213    95.645874    9.9318719    864.96887            0   -1726435.3   0.14285731   -1726429.4    0.2857152   -1726417.1   0.42857353   -1726372.1   0.57143122   -1726341.9   0.71428798   -1726339.7    0.8571443   -1726347.1            1   -1726349.6 
19900   0.41071857  0.083168453 7.0809545e-05 6.9649828e-05   0.49691368    95.579074    9.8650724    865.34475            0   -1726435.3    0.1428573   -1726429.4   0.28571519   -1726417.1   0.42857351   -1726372.2    0.5714312     -1726342   0.71428796   -1726339.8   0.85714429   -1726347.1            1   -1726349.6 
20000   0.40066407   0.07417613 7.0752495e-05 6.9594009e-05   0.49830269    95.508082    9.7940807    865.72656            0   -1726435.3   0.14285729   -1726429.5   0.28571516   -1726417.1   0.42857347   -1726372.3   0.57143113   -1726342.1   0.71428804   -1726339.8   0.85714423   -1726347.1            1   -1726349.6 
20100   0.39702108  0.079064193 7.0699493e-05 6.954212e-05   0.49884555    95.439155    9.7251523    866.08398            0   -1726435.3    0.1428573   -1726429.5   0.28571518   -1726417.1   0.42857349   -1726372.4   0.57143117   -1726342.2   0.71428794   -1726339.9   0.85714428   -1726347.2            1   -1726349.6 
20200   0.39174054  0.081685585 7.0645273e-05 6.9489009e-05    0.4979711     95.36635    9.6523485    866.45245            0   -1726435.3    0.1428573   -1726429.5   0.28571517   -1726417.1   0.42857348   -1726372.5   0.57143116   -1726342.3   0.71428793     -1726340   0.85714427   -1726347.2            1   -1726349.6 
20300   0.38237965  0.081089299 7.058959e-05 6.9434431e-05   0.49497864    95.290435    9.5764328    866.83418            0   -1726435.3   0.14285725   -1726429.5   0.28571506   -1726417.1   0.42857332   -1726372.6    0.5714309   -1726342.4   0.71428844   -1726340.1   0.85714398   -1726347.2            1   -1726349.6 
20400   0.38374633  0.075885485 7.0538772e-05 6.9384594e-05   0.49114555    95.221639    9.5076382    867.18455            0   -1726435.3   0.14285731   -1726429.5   0.28571518   -1726417.2   0.42857349   -1726372.7   0.57143116   -1726342.5   0.71428794   -1726340.1   0.85714427   -1726347.2            1   -1726349.6 
20500   0.38205909  0.066101082 7.0486523e-05 6.9333324e-05   0.48535767    95.152321    9.4383196    867.54773            0   -1726435.3   0.14285731   -1726429.5   0.28571519   -1726417.2    0.4285735   -1726372.8   0.57143117   -1726342.6   0.71428795   -1726340.2   0.85714428   -1726347.2            1   -1726349.6 
20600    0.3785229  0.056308479 7.0432919e-05 6.9280695e-05   0.47972381    95.083445    9.3694442    867.92305            0   -1726435.3   0.14285731   -1726429.5   0.28571517   -1726417.2   0.42857346     -1726373   0.57143112   -1726342.7   0.71428804   -1726340.3   0.85714422   -1726347.2            1   -1726349.6 
20700   0.38077122   0.04568052 7.0382498e-05 6.9231162e-05   0.47483308    95.020382    9.3063812    868.27834            0   -1726435.3   0.14285732   -1726429.5   0.28571519   -1726417.2   0.42857349   -1726373.1   0.57143116   -1726342.8   0.71428795   -1726340.3   0.85714427   -1726347.3            1   -1726349.6 
20800   0.38046842  0.046637664 7.0332949e-05 6.918246e-05   0.47118523    94.959383    9.2453814    868.62976            0   -1726435.3   0.14285732   -1726429.5   0.28571519   -1726417.2   0.42857348   -1726373.2   0.57143115   -1726342.9   0.71428794   -1726340.4   0.85714427   -1726347.3            1   -1726349.6 
20900   0.38066875  0.053590238 7.0282214e-05 6.9132566e-05   0.46800724    94.897289    9.1832867    868.99185            0   -1726435.3   0.14285732   -1726429.5   0.28571518   -1726417.2   0.42857347   -1726373.3   0.57143114   -1726342.9   0.71428793   -1726340.4   0.85714426   -1726347.3            1   -1726349.6 
21000   0.37939714  0.060720413 7.0230659e-05 6.9081837e-05   0.46485838    94.834316    9.1203152    869.36229            0   -1726435.3   0.14285731   -1726429.6   0.28571516   -1726417.3   0.42857344   -1726373.4   0.57143109     -1726343   0.71428799   -1726340.5   0.85714421   -1726347.3            1   -1726349.6 
21100   0.38255298  0.066437722 7.0182645e-05 6.9034568e-05   0.46244286    94.775681    9.0616797    869.70928            0   -1726435.3   0.14285732   -1726429.6   0.28571517   -1726417.3   0.42857344   -1726373.5    0.5714311   -1726343.1    0.7142879   -1726340.6   0.85714424   -1726347.3            1   -1726349.6 
21200   0.38404001  0.072548407 7.0135331e-05 6.8987964e-05    0.4600536    94.717644    9.0036425    870.05316            0   -1726435.3   0.14285731   -1726429.6   0.28571516   -1726417.3   0.42857342   -1726373.6   0.57143108   -1726343.2   0.71428789   -1726340.6   0.85714423   -1726347.3            1   -1726349.6 
21300   0.38637918  0.078547537 7.0086949e-05 6.8940282e-05   0.45713189    94.658016    8.9440142    870.40674            0   -1726435.3   0.14285731   -1726429.6   0.28571515   -1726417.3    0.4285734   -1726373.7   0.57143105   -1726343.3   0.71428786   -1726340.7   0.85714422   -1726347.3            1   -1726349.6 
21400   0.39254035  0.083615034 7.0038488e-05  6.88925e-05   0.45361008    94.598479    8.8844771    870.76285            0   -1726435.3   0.14285731   -1726429.6   0.28571516   -1726417.3    0.4285734   -1726373.8   0.57143105   -1726343.4   0.71428778   -1726340.7   0.85714425   -1726347.3            1   -1726349.6 
21500   0.39571691  0.086690168 6.999324e-05 6.8847863e-05   0.45007013    94.543087    8.8290853    871.09743            0   -1726435.3    0.1428573   -1726429.6   0.28571513   -1726417.3   0.42857336   -1726373.9     0.571431   -1726343.5   0.71428783   -1726340.8    0.8571442   -1726347.3            1   -1726349.6 
21600   0.40320696   0.08901649 6.9946203e-05 6.8801439e-05   0.44521571    94.486346    8.7723434    871.44737            0   -1726435.3    0.1428573   -1726429.6   0.28571512   -1726417.3   0.42857334     -1726374   0.57143098   -1726343.6   0.71428782   -1726340.9    0.8571442   -1726347.4            1   -1726349.6 
21700   0.41210003  0.086341555 6.9900385e-05 6.8756196e-05   0.44027617    94.432302    8.7183002    871.79037            0   -1726435.3    0.1428573   -1726429.6   0.28571511   -1726417.4   0.42857332   -1726374.1   0.57143097   -1726343.7   0.71428781   -1726340.9   0.85714419   -1726347.4            1   -1726349.6 
21800   0.42062877  0.082066314 6.9855823e-05 6.8712173e-05   0.43537641    94.380942    8.6669399    872.12624            0   -1726435.3   0.14285729   -1726429.6    0.2857151   -1726417.4   0.42857331   -1726374.2   0.57143095   -1726343.8    0.7142878     -1726341   0.85714419   -1726347.4            1   -1726349.6 
21900   0.44090017  0.074586447 6.980929e-05 6.8666181e-05   0.43062401    94.328699    8.6146977    872.47917            0   -1726435.3   0.14285734   -1726429.7    0.2857152   -1726417.4   0.42857344   -1726374.3   0.57143116   -1726343.9   0.71428732     -1726341   0.85714447   -1726347.4            1   -1726349.6 
22000   0.42248053  0.067643878 6.9766656e-05 6.8624024e-05   0.42593946    94.281564    8.5675625    872.80526            0   -1726435.3    0.1428573   -1726429.7    0.2857151   -1726417.4   0.42857331   -1726374.4   0.57143094     -1726344    0.7142878   -1726341.1   0.85714418   -1726347.4            1   -1726349.6 
22100   0.41754094  0.069099922 6.9722092e-05 6.8579938e-05   0.42185496    94.233193    8.5191907    873.14794            0   -1726435.3    0.1428573   -1726429.7   0.28571511   -1726417.4   0.42857332   -1726374.5   0.57143095   -1726344.1   0.71428781   -1726341.1   0.85714419   -1726347.4            1   -1726349.6 
22200   0.41662422  0.082696165 6.9678237e-05 6.8536535e-05   0.41794714    94.186255    8.4722539    873.48737            0   -1726435.3   0.14285731   -1726429.7   0.28571512   -1726417.4   0.42857333   -1726374.6   0.57143096   -1726344.2   0.71428781   -1726341.2   0.85714419   -1726347.4            1   -1726349.6 
22300    0.4187796  0.092196132 6.9636202e-05 6.8494917e-05   0.41486803    94.141728    8.4277262    873.81485            0   -1726435.3   0.14285731   -1726429.7   0.28571513   -1726417.4   0.42857333   -1726374.7   0.57143096   -1726344.3   0.71428782   -1726341.2   0.85714419   -1726347.5            1   -1726349.6 
22400   0.42535731   0.09955623 6.9592798e-05 6.8451923e-05   0.41146485    94.095967    8.3819645    874.15506            0   -1726435.3   0.14285731   -1726429.7   0.28571513   -1726417.5   0.42857333   -1726374.8   0.57143095   -1726344.5   0.71428782   -1726341.2   0.85714419   -1726347.5            1   -1726349.6 
22500   0.43548878   0.10077621 6.9549455e-05 6.8408972e-05   0.40845329     94.05052    8.3365178    874.49696            0   -1726435.3   0.14285732   -1726429.7   0.28571514   -1726417.5   0.42857334   -1726374.9   0.57143097   -1726344.6   0.71428775   -1726341.3   0.85714423   -1726347.5            1   -1726349.6 
22600   0.44426863  0.093850596 6.9508475e-05 6.8368347e-05   0.40545381    94.007645    8.2936422    874.82254            0   -1726435.3   0.14285731   -1726429.7   0.28571512   -1726417.5   0.42857331   -1726374.9   0.57143094   -1726344.7   0.71428782   -1726341.3   0.85714419   -1726347.5            1   -1726349.6 
22700   0.45434341  0.083405203 6.9467521e-05 6.8327732e-05   0.40259191    93.964887    8.2508847    875.15021            0   -1726435.3   0.14285731   -1726429.7   0.28571511   -1726417.5    0.4285733     -1726375   0.57143092   -1726344.8   0.71428782   -1726341.4   0.85714419   -1726347.6            1   -1726349.6 
22800   0.46437298  0.073498468 6.9425372e-05 6.8285915e-05   0.40007047    93.920834    8.2068318       875.49            0   -1726435.3    0.1428573   -1726429.7    0.2857151   -1726417.5   0.42857329   -1726375.1   0.57143092     -1726345   0.71428779   -1726341.4    0.8571442   -1726347.6            1   -1726349.6 
22900   0.47314363  0.073733119 6.9385343e-05 6.8246187e-05   0.39737055    93.878796    8.1647936    875.81517            0   -1726435.3    0.1428573   -1726429.7   0.28571509   -1726417.5   0.42857326   -1726375.2   0.57143089   -1726345.1    0.7142878   -1726341.5   0.85714418   -1726347.6            1   -1726349.6 
23000   0.47833005  0.070022364 6.9345617e-05 6.8206744e-05   0.39460592    93.836942    8.1229399    876.14043            0   -1726435.3   0.14285729   -1726429.8   0.28571507   -1726417.6   0.42857324   -1726375.3   0.57143087   -1726345.3    0.7142878   -1726341.5   0.85714418   -1726347.6            1   -1726349.6 
23100    0.4931616  0.079504433 6.9304292e-05  6.81657e-05   0.39163892    93.793548    8.0795449    876.48131            0   -1726435.3   0.14285732   -1726429.8   0.28571513   -1726417.6   0.42857333   -1726375.3   0.57143102   -1726345.4   0.71428733   -1726341.5   0.85714446   -1726347.6            1   -1726349.6 
23200   0.48311876  0.086488572 6.9266429e-05 6.812808e-05    0.3885626    93.753651    8.0396494    876.79678            0   -1726435.3   0.14285728   -1726429.8   0.28571505   -1726417.6   0.42857321   -1726375.4   0.57143085   -1726345.6   0.71428779   -1726341.6   0.85714417   -1726347.7            1   -1726349.6 
23300   0.48074879  0.089401031 6.9226924e-05 6.8088815e-05   0.38577015    93.712179    7.9981765    877.12856            0   -1726435.3   0.14285727   -1726429.8   0.28571504   -1726417.6   0.42857319   -1726375.5   0.57143084   -1726345.7   0.71428779   -1726341.6   0.85714418   -1726347.7            1   -1726349.6 
23400   0.47430304  0.087008327 6.9188198e-05 6.8050312e-05   0.38323526    93.671454    7.9574518    877.45674            0   -1726435.3   0.14285727   -1726429.8   0.28571503   -1726417.6   0.42857319   -1726375.6   0.57143084   -1726345.9    0.7142878   -1726341.7   0.85714418   -1726347.7            1   -1726349.6 
23500    0.4652592  0.082577969 6.9150473e-05 6.8012792e-05   0.38081357    93.631718    7.9177154    877.77935            0   -1726435.3   0.14285727   -1726429.8   0.28571503   -1726417.6   0.42857319   -1726375.7   0.57143084     -1726346   0.71428781   -1726341.7   0.85714418   -1726347.7            1   -1726349.6 
23600   0.46310699  0.088941254 6.9110981e-05 6.7973502e-05   0.37857978    93.590168    7.8761662    878.11977            0   -1726435.3    0.1428573   -1726429.8    0.2857151   -1726417.7    0.4285733   -1726375.8   0.57143101   -1726346.1   0.71428732   -1726341.8   0.85714451   -1726347.7            1   -1726349.6 
23700   0.43627298  0.091604756 6.9074849e-05 6.7937544e-05   0.37638641    93.551812    7.8378101    878.43427            0   -1726435.3   0.14285727   -1726429.8   0.28571504   -1726417.7   0.42857321     -1726376   0.57143087   -1726346.3   0.71428784   -1726341.8   0.85714419   -1726347.7            1   -1726349.6 
23800   0.42146149  0.093956147   6.9037e-05 6.7899866e-05   0.37421882    93.511692    7.7976897    878.76609            0   -1726435.3   0.14285728   -1726429.8   0.28571505   -1726417.7   0.42857323   -1726376.1   0.57143089   -1726346.4   0.71428785   -1726341.8   0.85714421   -1726347.8            1   -1726349.6 
23900   0.41360606  0.092699773 6.9000005e-05 6.7863027e-05   0.37234181     93.47242    7.7584179    879.09289            0   -1726435.3   0.14285729   -1726429.8   0.28571507   -1726417.7   0.42857325   -1726376.2    0.5714309   -1726346.5   0.71428787   -1726341.9   0.85714421   -1726347.8            1   -1726349.6 
24000   0.40944307  0.088336189 6.8963833e-05 6.7826998e-05   0.37057627    93.433876    7.7198728    879.41455            0   -1726435.3    0.1428573   -1726429.8   0.28571508   -1726417.7   0.42857327   -1726376.3   0.57143092   -1726346.6   0.71428788   -1726341.9   0.85714422   -1726347.8            1   -1726349.6 
24100   0.40285738  0.079632452 6.8925922e-05 6.7789226e-05   0.36907306     93.39337    7.6793681    879.75359            0   -1726435.3   0.14285733   -1726429.9   0.28571515   -1726417.8   0.42857336   -1726376.5   0.57143106   -1726346.7   0.71428742   -1726341.9   0.85714453   -1726347.8            1   -1726349.6 
24200   0.38781103   0.07027346 6.8891235e-05 6.7754656e-05   0.36753796    93.355884    7.6418817    880.06591            0   -1726435.3   0.14285731   -1726429.9    0.2857151   -1726417.8   0.42857329   -1726376.6   0.57143093   -1726346.8    0.7142879     -1726342   0.85714422   -1726347.8            1   -1726349.6 
24300   0.37705276   0.05975106 6.885516e-05 6.7718695e-05   0.36644082    93.316663    7.6026612    880.39244            0   -1726435.3   0.14285731   -1726429.9    0.2857151   -1726417.8   0.42857329   -1726376.7   0.57143094   -1726346.9    0.7142879     -1726342   0.85714422   -1726347.8            1   -1726349.6 
24400   0.37677867  0.048795367 6.8818416e-05 6.7682056e-05    0.3656317    93.276245    7.5622431    880.72682            0   -1726435.3   0.14285733   -1726429.9   0.28571513   -1726417.8   0.42857333   -1726376.8   0.57143099     -1726347   0.71428772   -1726342.1   0.85714434   -1726347.8            1   -1726349.6 
24500   0.36907532  0.056487993 6.8784532e-05 6.7648261e-05   0.36473119    93.238396    7.5243934    881.03698            0   -1726435.3   0.14285732   -1726429.9   0.28571511   -1726417.8    0.4285733   -1726376.9   0.57143093     -1726347    0.7142879   -1726342.1   0.85714422   -1726347.9            1   -1726349.6 
24600   0.36828391  0.070670533 6.8749047e-05 6.7612862e-05   0.36417442    93.198205    7.4842022    881.36334            0   -1726435.3   0.14285732   -1726429.9   0.28571511   -1726417.8   0.42857329     -1726377   0.57143093   -1726347.1   0.71428789   -1726342.1   0.85714421   -1726347.9            1   -1726349.6 
24700   0.37691583  0.090191021 6.871423e-05 6.7578121e-05   0.36370689    93.158066     7.444064     881.6852            0   -1726435.3   0.14285731   -1726429.9    0.2857151   -1726417.9   0.42857328   -1726377.1   0.57143091   -1726347.2   0.71428788   -1726342.2   0.85714421   -1726347.9            1   -1726349.6 
24800   0.39109766   0.11257883 6.8680424e-05 6.7544381e-05   0.36342232    93.118397     7.404395    881.99951            0   -1726435.3   0.14285731   -1726429.9   0.28571509   -1726417.9   0.42857327   -1726377.2    0.5714309   -1726347.3   0.71428788   -1726342.2    0.8571442   -1726347.9            1   -1726349.6 
[...]
207800  0.028324346 0.0032360283 5.2492134e-05 5.1919104e-05 5.1919104e-05    85.714002            0    1037.9471            0   -1726435.3   0.14285721   -1726434.5   0.28571436   -1726421.5    0.4285715   -1726404.9   0.57142861   -1726387.3   0.71428574   -1726367.5    0.8571429   -1726353.9            1   -1726349.6 
207900  0.028190905 0.0031789435 5.2486773e-05 5.191384e-05 5.191384e-05    85.714002            0    1037.9736            0   -1726435.3   0.14285721   -1726434.5   0.28571436   -1726421.5    0.4285715   -1726404.9   0.57142861   -1726387.3   0.71428574   -1726367.5    0.8571429   -1726353.9            1   -1726349.6 
208000  0.028179791 0.0031360521 5.2481383e-05 5.1908548e-05 5.1908548e-05    85.714003            0    1038.0003            0   -1726435.3   0.14285721   -1726434.5   0.28571436   -1726421.5    0.4285715   -1726404.9   0.57142861   -1726387.3   0.71428574   -1726367.5    0.8571429   -1726353.9            1   -1726349.6 
208100  0.028416025 0.0030967645 5.2475976e-05 5.1903238e-05 5.1903238e-05    85.714002            0     1038.027            0   -1726435.3   0.14285721   -1726434.5   0.28571436   -1726421.5    0.4285715   -1726404.9   0.57142861   -1726387.3   0.71428573   -1726367.5   0.85714291   -1726353.9            1   -1726349.6 
208200  0.028335349 0.0030919363  5.24706e-05 5.189796e-05 5.189796e-05    85.714003            0    1038.0536            0   -1726435.3   0.14285721   -1726434.5   0.28571436   -1726421.5    0.4285715   -1726404.9   0.57142861   -1726387.3   0.71428573   -1726367.5    0.8571429   -1726353.9            1   -1726349.6 
208300  0.028060133  0.003074256 5.246525e-05 5.1892706e-05 5.1892706e-05    85.714001            0    1038.0801            0   -1726435.3   0.14285721   -1726434.5   0.28571436   -1726421.5    0.4285715   -1726404.9   0.57142861   -1726387.3   0.71428574   -1726367.5    0.8571429   -1726353.9            1   -1726349.6 
208400  0.027991011 0.0030548053 5.245988e-05 5.1887434e-05 5.1887434e-05    85.714002            0    1038.1066            0   -1726435.3   0.14285721   -1726434.5   0.28571436   -1726421.5    0.4285715   -1726404.9   0.57142861   -1726387.3   0.71428574   -1726367.5   0.85714289   -1726353.9            1   -1726349.6 
208500  0.028081092 0.0030309664 5.2454486e-05 5.1882137e-05 5.1882137e-05    85.714002            0    1038.1332            0   -1726435.3   0.14285721   -1726434.5   0.28571436   -1726421.5    0.4285715   -1726404.9   0.57142861   -1726387.3   0.71428574   -1726367.5    0.8571429   -1726353.9            1   -1726349.6 
208600  0.028381862 0.0030006712 5.2449086e-05 5.1876834e-05 5.1876834e-05    85.714002            0    1038.1598            0   -1726435.3   0.14285721   -1726434.5   0.28571437   -1726421.5    0.4285715   -1726404.9   0.57142861   -1726387.3   0.71428573   -1726367.5   0.85714291   -1726353.9            1   -1726349.6 
208700  0.028032298 0.0029648887 5.2443736e-05 5.1871581e-05 5.1871581e-05    85.714001            0    1038.1862            0   -1726435.3   0.14285721   -1726434.5   0.28571436   -1726421.5    0.4285715   -1726404.9   0.57142861   -1726387.3   0.71428574   -1726367.5    0.8571429   -1726353.9            1   -1726349.6 
208800  0.027914655  0.002927627 5.2438381e-05 5.1866323e-05 5.1866323e-05    85.714001            0    1038.2126            0   -1726435.3   0.14285721   -1726434.5   0.28571436   -1726421.5    0.4285715   -1726404.9   0.57142861   -1726387.3   0.71428574   -1726367.5   0.85714289   -1726353.9            1   -1726349.6 
208900  0.027887945 0.0028899144 5.2433001e-05 5.1861041e-05 5.1861041e-05    85.714001            0    1038.2391            0   -1726435.3   0.14285721   -1726434.5   0.28571436   -1726421.5    0.4285715   -1726404.9   0.57142861   -1726387.3   0.71428574   -1726367.5    0.8571429   -1726353.9            1   -1726349.6 
209000  0.028144298 0.0028741119  5.24276e-05 5.1855737e-05 5.1855737e-05    85.714002            0    1038.2657            0   -1726435.3   0.14285721   -1726434.5   0.28571436   -1726421.5    0.4285715   -1726404.9   0.57142861   -1726387.3   0.71428573   -1726367.5    0.8571429   -1726353.9            1   -1726349.6 
209100  0.028061694 0.0028446248 5.2422232e-05 5.1850466e-05 5.1850466e-05    85.714002            0    1038.2921            0   -1726435.3   0.14285721   -1726434.5   0.28571436   -1726421.5    0.4285715   -1726404.9   0.57142861   -1726387.3   0.71428573   -1726367.5    0.8571429   -1726353.9            1   -1726349.6 
209200  0.027806251 0.0028174499 5.2416889e-05 5.1845219e-05 5.1845219e-05    85.714002            0    1038.3184            0   -1726435.3   0.14285721   -1726434.5   0.28571436   -1726421.5    0.4285715   -1726404.9   0.57142861   -1726387.3   0.71428574   -1726367.5    0.8571429   -1726353.9            1   -1726349.6 
209300  0.027776289 0.0027909634 5.2411524e-05 5.1839952e-05 5.1839952e-05    85.714002            0    1038.3447            0   -1726435.3   0.14285721   -1726434.5   0.28571436   -1726421.5    0.4285715   -1726404.9   0.57142861   -1726387.3   0.71428574   -1726367.5   0.85714289   -1726353.9            1   -1726349.6 
209400  0.027846736 0.0027652079 5.2406134e-05 5.1834659e-05 5.1834659e-05    85.714002            0    1038.3712            0   -1726435.3   0.14285721   -1726434.5   0.28571436   -1726421.5    0.4285715   -1726404.9   0.57142861   -1726387.3   0.71428574   -1726367.5    0.8571429   -1726353.9            1   -1726349.6 
209500  0.028122738 0.0032217805 5.2400745e-05 5.1829367e-05 5.1829367e-05    85.714002            0    1038.3977            0   -1726435.3   0.14285721   -1726434.5   0.28571437   -1726421.5    0.4285715   -1726404.9   0.57142861   -1726387.3   0.71428573   -1726367.5   0.85714291   -1726353.9            1   -1726349.6 
209600  0.027724451 0.0030830679 5.2395403e-05 5.1824121e-05 5.1824121e-05    85.714001            0    1038.4239            0   -1726435.3   0.14285721   -1726434.5   0.28571436   -1726421.5    0.4285715   -1726404.9   0.57142861   -1726387.3   0.71428574   -1726367.5    0.8571429   -1726353.9            1   -1726349.6 
209700  0.027603261 0.0030030754 5.2390056e-05 5.181887e-05 5.181887e-05    85.714002            0    1038.4501            0   -1726435.3   0.14285721   -1726434.5   0.28571436   -1726421.5    0.4285715   -1726404.9   0.57142861   -1726387.3   0.71428574   -1726367.5   0.85714289   -1726353.9            1   -1726349.6 
209800  0.027578707 0.0029324206 5.2384683e-05 5.1813594e-05 5.1813594e-05    85.714001            0    1038.4764            0   -1726435.3   0.14285721   -1726434.5   0.28571436   -1726421.6    0.4285715   -1726404.9   0.57142861   -1726387.3   0.71428574   -1726367.5   0.85714289   -1726353.9            1   -1726349.6 
209900  0.027812349 0.0028606257 5.2379288e-05 5.1808297e-05 5.1808297e-05    85.714002            0    1038.5028            0   -1726435.3   0.14285721   -1726434.6   0.28571436   -1726421.6    0.4285715   -1726404.9   0.57142861   -1726387.3   0.71428573   -1726367.5    0.8571429   -1726353.9            1   -1726349.6 
210000  0.027847471 0.0027854767 5.2373925e-05 5.180303e-05 5.180303e-05    85.714001            0     1038.529            0   -1726435.3   0.14285721   -1726434.6   0.28571436   -1726421.6    0.4285715   -1726404.9   0.57142861   -1726387.3   0.71428573   -1726367.5    0.8571429   -1726353.9            1   -1726349.6 
210100  0.027524764 0.0027131655 5.236859e-05 5.1797792e-05 5.1797792e-05    85.714002            0    1038.5551            0   -1726435.3   0.14285721   -1726434.6   0.28571436   -1726421.6    0.4285715   -1726404.9   0.57142861   -1726387.3   0.71428574   -1726367.5   0.85714289   -1726353.9            1   -1726349.6 
210200  0.027481162 0.0026417244 5.2363232e-05 5.179253e-05 5.179253e-05    85.714002            0    1038.5813            0   -1726435.3   0.14285721   -1726434.6   0.28571436   -1726421.6    0.4285715   -1726404.9   0.57142861   -1726387.3   0.71428574   -1726367.5   0.85714289   -1726353.9            1   -1726349.6 
210300  0.027569808  0.002585567 5.2357849e-05 5.1787245e-05 5.1787245e-05    85.714001            0    1038.6076            0   -1726435.3   0.14285721   -1726434.6   0.28571436   -1726421.6    0.4285715   -1726404.9   0.57142861   -1726387.3   0.71428573   -1726367.5    0.8571429   -1726353.9            1   -1726349.6 
210400  0.027856467 0.0025464978 5.2352469e-05 5.1781962e-05 5.1781962e-05    85.714002            0    1038.6339            0   -1726435.3   0.14285721   -1726434.6   0.28571436   -1726421.6    0.4285715   -1726404.9   0.57142861   -1726387.3   0.71428573   -1726367.5   0.85714291   -1726353.9            1   -1726349.6 
210500  0.027437138 0.0025265884 5.2347138e-05 5.1776726e-05 5.1776726e-05    85.714002            0    1038.6599            0   -1726435.3   0.14285721   -1726434.6   0.28571436   -1726421.6    0.4285715   -1726404.9   0.57142861   -1726387.3   0.71428573   -1726367.5    0.8571429   -1726353.9            1   -1726349.6 
210600  0.027441401 0.0025431917 5.2341792e-05 5.1771476e-05 5.1771476e-05    85.714002            0     1038.686            0   -1726435.3   0.14285721   -1726434.6   0.28571436   -1726421.6    0.4285715   -1726404.9   0.57142861   -1726387.3   0.71428574   -1726367.5   0.85714289   -1726353.9            1   -1726349.6 
210700  0.027424209 0.0025646843 5.2336418e-05 5.1766199e-05 5.1766199e-05    85.714002            0    1038.7122            0   -1726435.3   0.14285721   -1726434.6   0.28571436   -1726421.6    0.4285715   -1726404.9   0.57142861   -1726387.3   0.71428573   -1726367.5    0.8571429   -1726353.9            1   -1726349.6 
210800  0.027733641 0.0025938953 5.2331034e-05 5.1760912e-05 5.1760912e-05    85.714003            0    1038.7384            0   -1726435.3   0.14285721   -1726434.6   0.28571436   -1726421.6   0.42857149   -1726404.9   0.57142861   -1726387.3   0.71428573   -1726367.5   0.85714291   -1726353.9            1   -1726349.6 
210900  0.027347112 0.0026987959 5.2325701e-05 5.1755675e-05 5.1755675e-05    85.714002            0    1038.7644            0   -1726435.3   0.14285721   -1726434.6   0.28571436   -1726421.6    0.4285715   -1726404.9   0.57142861   -1726387.3   0.71428573   -1726367.5    0.8571429   -1726353.9            1   -1726349.6 
211000  0.027257228 0.0026469926 5.2320364e-05 5.1750434e-05 5.1750434e-05    85.714002            0    1038.7905            0   -1726435.3   0.14285721   -1726434.6   0.28571436   -1726421.6    0.4285715   -1726404.9   0.57142861   -1726387.3   0.71428574   -1726367.5   0.85714289   -1726353.9            1   -1726349.6 
211100  0.027295973 0.0025984079 5.2315001e-05 5.1745168e-05 5.1745168e-05    85.714002            0    1038.8166            0   -1726435.3   0.14285721   -1726434.6   0.28571436   -1726421.6    0.4285715   -1726404.9   0.57142861   -1726387.3   0.71428573   -1726367.5   0.85714289   -1726353.9            1   -1726349.6 
211200  0.027468936  0.002554672 5.2309618e-05 5.1739882e-05 5.1739882e-05    85.714002            0    1038.8428            0   -1726435.3   0.14285721   -1726434.6   0.28571436   -1726421.6   0.42857149   -1726404.9   0.57142861   -1726387.3   0.71428573   -1726367.5    0.8571429   -1726353.9            1   -1726349.6 
211300  0.027463041 0.0025134865 5.2304261e-05 5.1734621e-05 5.1734621e-05    85.714002            0    1038.8689            0   -1726435.3   0.14285721   -1726434.6   0.28571436   -1726421.6   0.42857149   -1726404.9   0.57142861   -1726387.3   0.71428573   -1726367.5    0.8571429   -1726353.9            1   -1726349.6 
211400  0.027158148 0.0024740022 5.2298935e-05 5.1729391e-05 5.1729391e-05    85.714002            0    1038.8949            0   -1726435.3   0.14285721   -1726434.6   0.28571436   -1726421.6    0.4285715   -1726404.9   0.57142861   -1726387.3   0.71428573   -1726367.5   0.85714289   -1726353.9            1   -1726349.6 
211500  0.027094385 0.0024568609 5.2293592e-05 5.1724144e-05 5.1724144e-05    85.714001            0    1038.9209            0   -1726435.3   0.14285721   -1726434.6   0.28571436   -1726421.6    0.4285715   -1726404.9   0.57142861   -1726387.3   0.71428574   -1726367.5   0.85714289   -1726353.9            1   -1726349.6 
211600  0.027105887 0.0024315225 5.2288226e-05 5.1718875e-05 5.1718875e-05    85.714002            0     1038.947            0   -1726435.3   0.14285721   -1726434.6   0.28571436   -1726421.6    0.4285715   -1726404.9   0.57142861   -1726387.3   0.71428573   -1726367.5   0.85714289   -1726353.9            1   -1726349.6 
211700  0.027400466   0.00239647 5.2282846e-05 5.1713591e-05 5.1713591e-05    85.714002            0    1038.9732            0   -1726435.3   0.14285721   -1726434.6   0.28571436   -1726421.6   0.42857149   -1726404.9   0.57142861   -1726387.3   0.71428573   -1726367.5    0.8571429   -1726353.9            1   -1726349.6 
211800  0.027177843 0.0023577121 5.2277507e-05 5.1708348e-05 5.1708348e-05    85.714002            0    1038.9991            0   -1726435.3   0.14285721   -1726434.6   0.28571436   -1726421.6    0.4285715   -1726404.9   0.57142861   -1726387.3   0.71428573   -1726367.5    0.8571429   -1726353.9            1   -1726349.6 
211900  0.026977119 0.0023194764 5.2272183e-05 5.1703119e-05 5.1703119e-05    85.714002            0     1039.025            0   -1726435.3   0.14285721   -1726434.6   0.28571436   -1726421.6    0.4285715   -1726404.9   0.57142861   -1726387.3   0.71428574   -1726367.5   0.85714289   -1726353.9            1   -1726349.6 
212000  0.026921147  0.002282463 5.2266836e-05 5.1697868e-05 5.1697868e-05    85.714003            0     1039.051            0   -1726435.3   0.14285721   -1726434.6   0.28571436   -1726421.6    0.4285715   -1726404.9   0.57142861   -1726387.3   0.71428574   -1726367.5   0.85714289   -1726353.9            1   -1726349.6 
212100   0.02702655  0.002246594 5.2261466e-05 5.1692594e-05 5.1692594e-05    85.714002            0    1039.0771            0   -1726435.3   0.14285721   -1726434.6   0.28571436   -1726421.6    0.4285715   -1726404.9   0.57142861   -1726387.3   0.71428573   -1726367.5    0.8571429   -1726353.9            1   -1726349.6 
212200  0.027331558 0.0022058548 5.2256097e-05 5.1687322e-05 5.1687322e-05    85.714002            0    1039.1032            0   -1726435.3   0.14285721   -1726434.6   0.28571436   -1726421.6   0.42857149   -1726404.9   0.57142861   -1726387.3   0.71428573   -1726367.5   0.85714291   -1726353.9            1   -1726349.6 
212300  0.026895155 0.0021658508 5.2250779e-05 5.1682099e-05 5.1682099e-05    85.714003            0     1039.129            0   -1726435.3   0.14285721   -1726434.6   0.28571436   -1726421.6    0.4285715   -1726404.9   0.57142861   -1726387.3   0.71428573   -1726367.5    0.8571429   -1726353.9            1   -1726349.6 
212400  0.026839541 0.0021356829 5.2245449e-05 5.1676864e-05 5.1676864e-05    85.714003            0    1039.1548            0   -1726435.3   0.14285721   -1726434.6   0.28571436   -1726421.6    0.4285715   -1726404.9   0.57142861   -1726387.3   0.71428573   -1726367.5   0.85714289   -1726353.9            1   -1726349.6 
212500  0.026865764 0.0021136845 5.224009e-05 5.1671602e-05 5.1671602e-05    85.714003            0    1039.1807            0   -1726435.3   0.14285721   -1726434.6   0.28571436   -1726421.6    0.4285715   -1726404.9   0.57142861   -1726387.3   0.71428573   -1726367.5   0.85714289   -1726353.9            1   -1726349.6 
212600  0.027189662 0.0020925044 5.2234718e-05 5.1666326e-05 5.1666326e-05    85.714002            0    1039.2067            0   -1726435.3   0.14285721   -1726434.6   0.28571436   -1726421.6   0.42857149   -1726404.9   0.57142861   -1726387.3   0.71428573   -1726367.5    0.8571429   -1726353.9            1   -1726349.6 
212700  0.026834743 0.0020683543 5.2229395e-05 5.1661098e-05 5.1661098e-05    85.714003            0    1039.2325            0   -1726435.3   0.14285721   -1726434.6   0.28571436   -1726421.6    0.4285715   -1726404.9   0.57142861   -1726387.3   0.71428573   -1726367.5    0.8571429   -1726353.9            1   -1726349.6 
212800  0.026706508 0.0020437312 5.2224073e-05 5.1655871e-05 5.1655871e-05    85.714002            0    1039.2582            0   -1726435.3   0.14285721   -1726434.6   0.28571436   -1726421.6    0.4285715   -1726404.9   0.57142861   -1726387.3   0.71428573   -1726367.5   0.85714289   -1726353.9            1   -1726349.6 
212900  0.026738744 0.0020185253 5.2218722e-05 5.1650617e-05 5.1650617e-05    85.714002            0    1039.2841            0   -1726435.3   0.14285721   -1726434.6   0.28571436   -1726421.6    0.4285715   -1726404.9   0.57142861   -1726387.3   0.71428573   -1726367.5   0.85714289   -1726353.9            1   -1726349.6 
213000  0.027082528 0.0019941681 5.2213354e-05 5.1645345e-05 5.1645345e-05    85.714003            0      1039.31            0   -1726435.3   0.14285721   -1726434.6   0.28571436   -1726421.6   0.42857149   -1726404.9   0.57142861   -1726387.3   0.71428573   -1726367.5    0.8571429   -1726353.9            1   -1726349.6 
213100    0.0267357 0.0019735418 5.2208034e-05 5.164012e-05 5.164012e-05    85.714002            0    1039.3357            0   -1726435.3   0.14285721   -1726434.6   0.28571436   -1726421.6   0.42857149   -1726404.9   0.57142861   -1726387.3   0.71428573   -1726367.5    0.8571429   -1726353.9            1   -1726349.6 
213200  0.026616891 0.0019495724 5.2202714e-05 5.1634895e-05 5.1634895e-05    85.714003            0    1039.3614            0   -1726435.3   0.14285721   -1726434.6   0.28571436   -1726421.6    0.4285715   -1726404.9   0.57142861   -1726387.3   0.71428573   -1726367.5   0.85714289   -1726353.9            1   -1726349.6 
213300  0.026732703 0.0019274962 5.2197356e-05 5.1629633e-05 5.1629633e-05    85.714003            0    1039.3873            0   -1726435.3   0.14285721   -1726434.6   0.28571436   -1726421.6   0.42857149   -1726404.9   0.57142861   -1726387.3   0.71428573   -1726367.5    0.8571429   -1726353.9            1   -1726349.6 
213400  0.026875907 0.0019052352 5.2192013e-05 5.1624386e-05 5.1624386e-05    85.714003            0     1039.413            0   -1726435.3   0.14285721   -1726434.6   0.28571436   -1726421.6   0.42857149   -1726404.9   0.57142861   -1726387.3   0.71428573   -1726367.5    0.8571429   -1726353.9            1   -1726349.6 
213500  0.026546159 0.0018811411 5.2186706e-05 5.1619173e-05 5.1619173e-05    85.714002            0    1039.4386            0   -1726435.3   0.14285721   -1726434.6   0.28571436   -1726421.6    0.4285715   -1726404.9   0.57142861   -1726387.3   0.71428573   -1726367.5   0.85714289   -1726353.9            1   -1726349.6 
213600   0.02658169 0.0018567838 5.2181363e-05 5.1613926e-05 5.1613926e-05    85.714002            0    1039.4644            0   -1726435.3   0.14285721   -1726434.6   0.28571436   -1726421.6   0.42857149   -1726404.9   0.57142861   -1726387.3   0.71428573   -1726367.5   0.85714289   -1726353.9            1   -1726349.6 
213700  0.026883573  0.001838857 5.2176005e-05 5.1608664e-05 5.1608664e-05    85.714002            0    1039.4902            0   -1726435.3   0.14285721   -1726434.6   0.28571436   -1726421.6   0.42857149   -1726404.9   0.57142861   -1726387.3   0.71428573   -1726367.5    0.8571429   -1726353.9            1   -1726349.6 
213800  0.026588638  0.001825413 5.2170698e-05 5.1603452e-05 5.1603452e-05    85.714002            0    1039.5157            0   -1726435.3   0.14285721   -1726434.6   0.28571436   -1726421.6   0.42857149   -1726404.9   0.57142861   -1726387.3   0.71428573   -1726367.5   0.85714289   -1726353.9            1   -1726349.6 
