LAMMPS (22 Aug 2018)
Processor partition = 6
Reading data file ...
  orthogonal box = (0 0 0) to (170 170 379.205)
  1 by 1 by 1 MPI processor grid
  reading atoms ...
  443580 atoms
Reading potential file /home/yzhang951/Au_Al/Au_u3.eam with DATE: 2007-06-11
WARNING: Using 'neigh_modify every 1 delay 0 check yes' setting during minimization (../min.cpp:168)
Neighbor list info ...
  update every 1 steps, delay 0 steps, check yes
  max neighbors/atom: 2000, page size: 100000
  master list distance cutoff = 7.55
  ghost atom cutoff = 7.55
  binsize = 3.775, bins = 46 46 101
  1 neighbor lists, perpetual/occasional/extra = 1 0 0
  (1) pair eam, perpetual
      attributes: half, newton on
      pair build: half/bin/atomonly/newton
      stencil: half/bin/3d/newton
      bin: standard
Setting up quickmin style minimization ...
  Unit style    : metal
  Current step  : 0
Per MPI rank memory allocation (min/avg/max) = 232.7 | 232.7 | 232.7 Mbytes
Step TotEng Pxx Pyy Pzz Pxy Pyz Pxz 
       0   -1725757.7    316.24887    381.84484    314.17735   -227.68711    19.115416   -53.522319 
     100   -1726245.7     59.29365    73.502008    45.194064   -192.53521    2.9079256   -50.008339 
     200   -1726286.9    42.065878    49.444918    28.570947   -181.89925    1.3031591   -49.096309 
     300   -1726304.2    34.901156    41.322598    22.731957   -174.54726    2.8745419   -47.253747 
     400   -1726319.4    30.325217    38.167219     19.94367   -170.04019    5.0117324   -45.130138 
     500     -1726323    28.258402    37.511489    18.751942   -166.73334    7.0448224   -43.296185 
     600   -1726325.2    26.657972    37.654954    18.015647   -164.21489    8.9951189   -41.480805 
     700   -1726329.2    25.158894    37.918849    17.429996   -162.57533    10.598071   -39.860979 
     800   -1726330.2    24.236121    38.603623    17.213963   -161.28368    12.063299   -38.425926 
     900   -1726332.2    23.252679    39.259321    16.999196    -160.2966    13.424422   -37.023103 
    1000   -1726332.9    22.595388    39.990419    16.944778   -159.60967    14.567442   -35.867414 
    1100   -1726333.3    21.989776    40.766633    16.947395   -159.07455    15.678489   -34.753779 
    1200   -1726334.5    21.330319    41.512086     16.92628   -158.68826    16.731651   -33.674058 
    1300   -1726334.9    20.870553    42.264197    16.998365    -158.4472    17.635087   -32.773802 
    1400   -1726335.1     20.44176    43.041171    17.098532    -158.2869    18.525987   -31.906281 
    1500   -1726335.8    20.000102    43.768449    17.175769   -158.22181    19.381203   -31.053403 
    1600     -1726336    19.656107    44.468283    17.302713   -158.22036    20.133596    -30.31929 
    1700   -1726336.2    19.332919    45.189418    17.448784   -158.26262    20.882986   -29.600121 
    1800   -1726336.7    18.959833    45.865137    17.554515   -158.35392     21.60849   -28.888557 
    1900   -1726336.9    18.684724    46.477706    17.686973   -158.46492     22.24698   -28.283488 
    2000     -1726337    18.406814    47.093989    17.814566   -158.60842    22.899302   -27.671387 
    2100   -1726337.1    18.130764    47.693881    17.941573   -158.77822    23.536197   -27.077915 
    2200   -1726337.5    17.855411    48.201024    18.041671     -158.948    24.105736   -26.537206 
    2300   -1726337.6    17.603447    48.705157    18.162942   -159.13768    24.675318   -26.019456 
    2400   -1726337.8    17.341108    49.211269    18.281918    -159.3479    25.251089   -25.501446 
    2500     -1726338    17.103176    49.657438    18.373923   -159.54917    25.763419   -25.041862 
    2600   -1726338.1    16.873736    50.119896    18.476853   -159.76582     26.27783    -24.58892 
    2700   -1726338.2    16.642117    50.566744    18.573171   -160.00418    26.798167   -24.135192 
    2800   -1726338.5    16.398681     50.94048    18.639892   -160.22714    27.273247    -23.72089 
    2900   -1726338.5    16.175058    51.326307    18.723054   -160.45323    27.740669   -23.319609 
    3000   -1726338.6    15.954023    51.704387    18.794888   -160.69095    28.212663   -22.917439 
    3100   -1726338.8    15.716964    52.031405    18.839933   -160.91416    28.654988   -22.538906 
    3200   -1726338.9     15.50517    52.355006    18.894349   -161.13135    29.087135   -22.180861 
    3300   -1726338.9    15.286041    52.680755    18.939064    -161.3611    29.530024   -21.819164 
    3400   -1726339.1     15.05129    52.958402    18.960686    -161.5721    29.943487    -21.47435 
    3500   -1726339.2    14.839275     53.22049    18.987365   -161.76988     30.34801   -21.155914 
    3600   -1726339.2    14.617038    53.487438    19.008063   -161.96975    30.759465   -20.827557 
    3700   -1726339.4    14.392085    53.708565    19.007747   -162.15385     31.14175   -20.518961 
    3800   -1726339.5    14.175427    53.924475    19.012531   -162.33158    31.523344   -20.217438 
    3900   -1726339.5    13.955422     54.13061    19.012013    -162.5098    31.915455   -19.907975 
    4000   -1726339.7    13.728239    54.303623    18.995674   -162.66996    32.273702   -19.627742 
    4100   -1726339.7    13.522756    54.472335    18.980431   -162.82484    32.631098   -19.353612 
    4200   -1726339.8    13.303725    54.632823    18.949375   -162.98106    32.997752   -19.073269 
    4300   -1726339.9     13.07528    54.770237    18.911949   -163.12811    33.350479   -18.799723 
    4400     -1726340     12.86601    54.892695    18.872666    -163.2596    33.685626   -18.545083 
    4500     -1726340    12.648026     55.01865    18.833155   -163.39867    34.025284   -18.289004 
    4600   -1726340.1    12.423727    55.143306    18.783822   -163.53215    34.365472   -18.029025 
    4700   -1726340.2    12.217623    55.252973    18.739243   -163.64966    34.686937   -17.791984 
    4800   -1726340.2    11.996842    55.342011    18.677605   -163.75645    35.011173   -17.553844 
    4900   -1726340.3    11.773105    55.432669    18.609421   -163.86136    35.342382   -17.304592 
    5000   -1726340.4    11.570779    55.505926    18.544454   -163.95458    35.642048   -17.086748 
    5100   -1726340.4    11.353934    55.576414    18.474891     -164.044     35.95318   -16.863164 
    5200   -1726340.5     11.12607    55.635019    18.396087   -164.12719    36.266465   -16.633557 
    5300   -1726340.6     10.89827    55.672379    18.311786   -164.20159    36.556964   -16.417764 
    5400   -1726340.6    10.679775     55.70825    18.230139   -164.26495    36.842694   -16.203271 
    5500   -1726340.7    10.449689    55.738738    18.132424     -164.321    37.142396   -15.979047 
    5600   -1726340.8    10.224157    55.761079    18.042413   -164.36548    37.415844   -15.775168 
    5700   -1726340.8    9.9965312    55.777766    17.946562   -164.40598    37.701972   -15.564994 
    5800   -1726340.9    9.7529754    55.778769    17.836111    -164.4347    37.981799   -15.353505 
    5900   -1726340.9    9.5290264    55.772072    17.741665   -164.45748     38.24867   -15.155915 
    6000     -1726341    9.2963592    55.755281    17.643291   -164.46668    38.522654    -14.95852 
    6100     -1726341    9.0450732    55.725654    17.534238   -164.46683    38.799683    -14.75754 
    6200   -1726341.2    8.7967056    55.674555    17.421646   -164.45661    39.055815    -14.56592 
    6300   -1726341.2    8.5449533     55.60871    17.315816   -164.43537    39.312736    -14.38362 
    6400   -1726341.3    8.2864495    55.534558    17.211899   -164.40146    39.574448   -14.198408 
    6500   -1726341.4    7.9960488    55.434792    17.095691   -164.36219     39.83285   -14.015717 
    6600   -1726341.5    7.7223153    55.339552    16.993276    -164.3128    40.080415   -13.850209 
    6700   -1726341.6    7.4235764     55.23016    16.878692   -164.24981     40.32837   -13.681128 
    6800   -1726341.8    7.1223454    55.115301    16.744951   -164.18834    40.569394   -13.515945 
    6900   -1726341.8      6.84025    55.013789    16.627269   -164.12098    40.800855   -13.360503 
    7000   -1726341.9    6.5425858    54.907326    16.491733   -164.05246    41.047487   -13.200291 
    7100   -1726342.1    6.2529112    54.793743    16.353457   -163.98346    41.289779     -13.0459 
    7200   -1726342.1     6.000696    54.685622    16.222477   -163.91619    41.516993   -12.905394 
    7300   -1726342.2    5.7496855    54.581947    16.090318   -163.84434    41.753207   -12.763015 
    7400   -1726342.3    5.4994049    54.460476    15.954637   -163.77114    41.994381   -12.625892 
    7500   -1726342.3    5.2879818     54.35025     15.83273   -163.69765    42.212173   -12.497684 
    7600   -1726342.4    5.0784312     54.23552     15.71884   -163.62018    42.431412   -12.373251 
    7700   -1726342.4    4.8691877    54.107705    15.600072   -163.53352    42.654545   -12.248369 
    7800   -1726342.5    4.6568484    53.972625     15.47251   -163.44308    42.874697   -12.132186 
    7900   -1726342.6    4.4730663    53.851679    15.363903    -163.3509    43.075459   -12.024227 
    8000   -1726342.6    4.2863133    53.717065     15.24764   -163.25441    43.283693   -11.916023 
    8100   -1726342.7    4.0966833    53.569853    15.124234   -163.14608    43.493335   -11.810828 
    8200   -1726342.7     3.925013    53.432666    15.008201   -163.03416    43.686827   -11.711114 
    8300   -1726342.8    3.7589512    53.281385    14.880245   -162.90891    43.886686   -11.610991 
    8400   -1726342.8    3.5881446    53.124399    14.754795   -162.77919      44.0872   -11.513682 
    8500     -1726343    3.4150213    52.962833    14.633837   -162.64165    44.280275   -11.417342 
    8600     -1726343    3.2554075    52.812559     14.52814   -162.50452    44.461243   -11.330659 
    8700   -1726343.1    3.0833074    52.651974    14.420785   -162.36508    44.646878   -11.244941 
    8800   -1726343.1    2.9027966     52.48286    14.320682    -162.2213     44.83731   -11.157089 
    8900   -1726343.3     2.710295    52.305994    14.213824    -162.0824    45.026759   -11.072668 
    9000   -1726343.3    2.5481844    52.147392    14.116099   -161.94863    45.206142   -10.990447 
    9100   -1726343.3    2.3852029    51.979883     14.01727   -161.80982    45.391897   -10.905585 
    9200   -1726343.4    2.2248166    51.813825    13.915566   -161.67002    45.575682   -10.822481 
    9300   -1726343.4    2.0828184    51.654713    13.821969    -161.5326    45.753935   -10.748893 
    9400   -1726343.5    1.9334035     51.49051    13.718764   -161.38239    45.940137   -10.671737 
    9500   -1726343.5    1.7847478      51.3283    13.614247   -161.24137    46.114978   -10.604771 
    9600   -1726343.6    1.6492295    51.164169    13.514197   -161.09001    46.292633   -10.541206 
    9700   -1726343.6    1.5149303    50.989917    13.410886   -160.92992    46.475955   -10.475065 
    9800   -1726343.7    1.3855134    50.825745    13.306818   -160.77905    46.650278   -10.419257 
    9900   -1726343.7    1.2662828    50.663937    13.200382   -160.62379    46.817454    -10.36602 
   10000   -1726343.8     1.147376    50.490738    13.086605   -160.46784    46.993575   -10.321571 
   10100   -1726343.9    1.0253834    50.312379    12.950515   -160.31312    47.162531   -10.278576 
   10200   -1726343.9   0.93099549    50.141858     12.82557   -160.17037    47.327956   -10.252388 
   10300     -1726344   0.84508384    49.975139     12.68999   -160.02733     47.50704   -10.235936 
   10400   -1726344.1   0.74699228    49.832426    12.563928   -159.89213    47.680577   -10.227955 
   10500   -1726344.3   0.66536162     49.70901    12.469309    -159.7518    47.867853   -10.200944 
   10600   -1726344.5    0.5550595    49.589004    12.398709   -159.59863    48.057384   -10.153455 
   10700   -1726344.5   0.45581953    49.475151    12.341597   -159.43414    48.246228   -10.084371 
   10800   -1726344.7   0.33530636    49.340709    12.268154   -159.24848    48.436701   -10.007433 
   10900   -1726344.7   0.22653927    49.204584    12.188154   -159.07851    48.614009   -9.9378648 
   11000   -1726344.7   0.11161191     49.05589    12.092058   -158.89631    48.797181    -9.868249 
   11100   -1726344.8 -0.0031261903    48.901169    11.993575   -158.71862     48.97232   -9.8026483 
   11200   -1726344.8  -0.11368566    48.734284    11.895402   -158.54107     49.14135   -9.7398898 
   11300   -1726344.9  -0.22951102    48.553242    11.788584   -158.35101    49.319255   -9.6777549 
   11400   -1726344.9  -0.33688224    48.381617    11.684244   -158.17488    49.483035   -9.6192815 
   11500     -1726345  -0.44815443    48.196296    11.573041   -157.99237    49.653408    -9.560798 
   11600     -1726345  -0.55800081    48.016044    11.462671   -157.81087    49.821387   -9.5030454 
   11700     -1726345    -0.664677    47.824963    11.351239   -157.63285    49.983708   -9.4459406 
   11800   -1726345.1  -0.77738544    47.622475    11.231686   -157.44794    50.149038   -9.3869761 
   11900   -1726345.1  -0.87427495    47.433852    11.126413     -157.274    50.302689   -9.3326488 
   12000   -1726345.2  -0.97248525     47.22728    11.012638   -157.09071    50.459978    -9.273337 
   12100   -1726345.2    -1.078856    47.022961    10.891331   -156.91321     50.61388   -9.2129817 
   12200   -1726345.2   -1.1724112     46.82612    10.784693   -156.74013    50.764727   -9.1542096 
   12300   -1726345.3   -1.2758139    46.616745    10.670407   -156.56113    50.924726   -9.0936606 
   12400   -1726345.3    -1.375634     46.41877    10.559852   -156.38838    51.074324    -9.031612 
   12500   -1726345.3   -1.4656396    46.225304    10.454752   -156.22254    51.219772   -8.9697542 
   12600   -1726345.4   -1.5529161    46.024871    10.345441   -156.05302    51.373708   -8.9069888 
   12700   -1726345.4   -1.6386603    45.831956    10.238745     -155.891    51.518657   -8.8473548 
   12800   -1726345.4   -1.7205004    45.650363    10.139053   -155.72667    51.663342   -8.7856431 
   12900   -1726345.5   -1.8042015    45.459995    10.037424   -155.55984    51.815984   -8.7245973 
   13000   -1726345.5   -1.8861743    45.275698    9.9394966    -155.3915    51.966921   -8.6659858 
   13100   -1726345.5   -1.9651059    45.106409     9.850389    -155.2275    52.108359   -8.6144521 
   13200   -1726345.6   -2.0438698    44.933142    9.7575823   -155.06179    52.253471   -8.5607402 
   13300   -1726345.6   -2.1184452    44.761025    9.6665038   -154.89367    52.405336   -8.5013018 
   13400   -1726345.6   -2.1927562    44.600951    9.5819302   -154.73749    52.547022   -8.4468087 
   13500   -1726345.6   -2.2669824    44.437975     9.493717   -154.57408    52.694826   -8.3929661 
   13600   -1726345.7   -2.3439782    44.264208    9.3970693    -154.4059    52.850782   -8.3382658 
   13700   -1726345.7   -2.4202334    44.107094    9.3114236   -154.24953    52.998914   -8.2894033 
   13800   -1726345.7   -2.4934493    43.948655    9.2298554   -154.08962    53.150461   -8.2387616 
   13900   -1726345.7   -2.5718932    43.779972    9.1419335   -153.92444    53.308018   -8.1884483 
   14000   -1726345.8   -2.6388732    43.625663    9.0617973    -153.7715    53.454846   -8.1415029 
   14100   -1726345.8   -2.7111094    43.473219    8.9801936   -153.60764    53.614262   -8.0920268 
   14200   -1726345.8   -2.7836336    43.321309    8.9005707   -153.45135    53.769461   -8.0423972 
   14300   -1726345.8   -2.8588416    43.173343    8.8234304   -153.29369    53.928082   -7.9954325 
   14400   -1726345.9   -2.9361079    43.022757    8.7473851   -153.13056    54.092206   -7.9464081 
   14500   -1726345.9   -3.0122204    42.879426    8.6787192   -152.97308    54.243376   -7.8995193 
   14600   -1726345.9   -3.0888125    42.721507     8.609176   -152.80307     54.40362   -7.8514107 
   14700     -1726346    -3.168941    42.552025    8.5406753   -152.62762    54.556118   -7.8010642 
   14800   -1726346.1   -3.2310726     42.36651    8.4673808   -152.45106    54.700107   -7.7534159 
   14900   -1726346.1   -3.2972095    42.151805    8.3708995   -152.25864    54.853212   -7.7100298 
   15000   -1726346.2   -3.3614812    41.946404    8.2751468   -152.08152    54.993301   -7.6731006 
   15100   -1726346.2   -3.4200487    41.739452    8.1829681   -151.90006    55.140867   -7.6387484 
   15200   -1726346.3   -3.4810617    41.533096    8.0854982   -151.71607     55.29643   -7.6055467 
   15300   -1726346.3   -3.5374594    41.349661    8.0010249   -151.54902    55.440082   -7.5737426 
   15400   -1726346.3   -3.5915217    41.166241    7.9180307   -151.37811    55.594192   -7.5420389 
   15500   -1726346.4   -3.6514613    40.977539    7.8327511   -151.20288    55.752938   -7.5099107 
   15600   -1726346.4   -3.7012478    40.807836     7.757406   -151.03963     55.90179   -7.4798633 
   15700   -1726346.4   -3.7521532     40.62897    7.6791098   -150.87116    56.057782   -7.4486177 
   15800   -1726346.4   -3.8048657    40.455625    7.6000826   -150.69921    56.216071   -7.4204545 
   15900   -1726346.4   -3.8487466    40.292911    7.5244091    -150.5362    56.367103    -7.393015 
   16000   -1726346.4   -3.8975807    40.121683    7.4479114   -150.36387    56.527474   -7.3643056 
   16100   -1726346.5    -3.944521    39.954885    7.3705314   -150.19719    56.685118   -7.3341783 
   16200   -1726346.5   -3.9894483    39.794488    7.2969485   -150.03122    56.841406   -7.3050925 
   16300   -1726346.5   -4.0342899     39.62238    7.2186918   -149.85589     57.00585   -7.2766808 
   16400   -1726346.5   -4.0733514    39.466337     7.145717   -149.69333    57.159482   -7.2477658 
   16500   -1726346.5   -4.1099869    39.302586    7.0717782   -149.52542    57.320341   -7.2207384 
   16600   -1726346.6   -4.1427398    39.138537    6.9945821   -149.35085    57.486593   -7.1935927 
   16700   -1726346.6   -4.1724619    38.988585    6.9303025   -149.19255    57.637829   -7.1673548 
   16800   -1726346.6   -4.2012249    38.837816    6.8616027   -149.02533    57.801964   -7.1421548 
   16900   -1726346.6    -4.233319    38.690831     6.796934   -148.86424    57.961077   -7.1178122 
   17000   -1726346.7   -4.2639474    38.541438    6.7338681   -148.70888    58.115788   -7.0928018 
   17100   -1726346.7   -4.2928581    38.393528    6.6710246   -148.54873     58.27701   -7.0694283 
   17200   -1726346.7   -4.3201706     38.25283    6.6106593   -148.39691    58.425482   -7.0513819 
   17300   -1726346.7   -4.3428774    38.102637    6.5489053    -148.2351    58.583926   -7.0287743 
   17400   -1726346.7   -4.3715218    37.956128    6.4885519   -148.08448    58.731583   -7.0107882 
   17500   -1726346.7   -4.3976663    37.809732    6.4281927   -147.92972     58.88794   -6.9907061 
   17600   -1726346.8   -4.4258398    37.657244    6.3703396   -147.77745    59.038144   -6.9727376 
   17700   -1726346.8   -4.4497746    37.507708     6.312254   -147.62378    59.189505    -6.954393 
   17800   -1726346.8   -4.4765203    37.356261    6.2553796   -147.46675    59.345564   -6.9351372 
   17900   -1726346.8   -4.4950544    37.212585     6.206769   -147.31847    59.493127   -6.9170664 
   18000   -1726346.8   -4.5171329     37.06031    6.1535109    -147.1613    59.646611   -6.8989154 
   18100   -1726346.9    -4.544182    36.903823    6.0944284   -147.01451    59.793809    -6.881129 
   18200   -1726346.9   -4.5677665    36.752564    6.0390106   -146.86826    59.940928   -6.8610211 
   18300   -1726346.9    -4.585418    36.597405     5.985275   -146.71402    60.094469   -6.8408113 
   18400   -1726346.9   -4.6051543    36.453743    5.9383606   -146.57232    60.238021   -6.8191028 
   18500   -1726346.9    -4.624058    36.307177    5.8900286   -146.42452    60.386458   -6.7980022 
   18600   -1726346.9   -4.6404824    36.155705    5.8393208   -146.27159    60.537775       -6.777 
   18700     -1726347   -4.6610198     36.01298    5.7892197   -146.12832    60.681538   -6.7576387 
   18800     -1726347   -4.6835768    35.868577    5.7420974   -145.98304    60.823234   -6.7367862 
   18900     -1726347    -4.701045    35.723324    5.6960824   -145.83547    60.969859   -6.7151885 
   19000     -1726347   -4.7237244    35.572562     5.645772   -145.69042    61.115505   -6.6915607 
   19100     -1726347   -4.7409652    35.429765    5.5984697   -145.55028    61.254165   -6.6692828 
   19200     -1726347   -4.7552106    35.285141    5.5533769   -145.40472    61.397521   -6.6471932 
   19300     -1726347   -4.7701093    35.141535     5.507117   -145.26146    61.537617   -6.6252095 
   19400     -1726347   -4.7874474    35.000679    5.4617001   -145.12303    61.675038   -6.6056198 
   19500   -1726347.1   -4.8038144    34.853596    5.4107069   -144.97713    61.816808   -6.5856956 
   19600   -1726347.1   -4.8185597    34.707086    5.3661853   -144.82649    61.961867   -6.5641442 
   19700   -1726347.1   -4.8305681    34.564504    5.3212052   -144.68203    62.103587   -6.5450355 
   19800   -1726347.1   -4.8422421    34.429368    5.2767715   -144.54643    62.242321   -6.5247668 
   19900   -1726347.1   -4.8545937    34.295189    5.2350195   -144.40467     62.38479   -6.5033815 
   20000   -1726347.1   -4.8661269    34.158017    5.1911159   -144.25968    62.530545   -6.4808065 
   20100   -1726347.2   -4.8759474     34.03243    5.1509879   -144.12602    62.666357   -6.4589756 
   20200   -1726347.2   -4.8852945    33.906364    5.1121549   -143.98988     62.80691   -6.4387885 
   20300   -1726347.2   -4.8954366    33.781534    5.0746823   -143.84784    62.952293   -6.4179084 
   20400   -1726347.2   -4.9056213    33.662616    5.0375663   -143.71677    63.084494   -6.3976438 
   20500   -1726347.2    -4.913403    33.543439    5.0026251   -143.58186    63.219833   -6.3769746 
   20600   -1726347.2   -4.9208082    33.418675    4.9691213   -143.44451    63.361314   -6.3578799 
   20700   -1726347.2    -4.929545    33.300121    4.9336962   -143.31433    63.491638    -6.339773 
   20800   -1726347.3   -4.9399609     33.18424    4.8999737   -143.18675    63.619133   -6.3216854 
   20900   -1726347.3   -4.9501255    33.064851    4.8661029   -143.05643    63.749839   -6.3044964 
   21000   -1726347.3   -4.9629125    32.936609    4.8289916   -142.92134    63.883904   -6.2874937 
   21100   -1726347.3   -4.9739086    32.819241    4.7928443   -142.79519    64.009628   -6.2694886 
   21200   -1726347.3   -4.9856771    32.699418    4.7606534   -142.67121    64.133577   -6.2526854 
   21300   -1726347.3   -4.9934642    32.579964    4.7294339   -142.54307    64.260338    -6.235277 
   21400   -1726347.3   -5.0032404    32.453285    4.6932372    -142.4142    64.386629   -6.2193629 
   21500   -1726347.3   -5.0164178    32.334387    4.6629259   -142.29263    64.507968   -6.2053208 
   21600   -1726347.3   -5.0284248    32.210792    4.6305293    -142.1657    64.631698   -6.1906311 
   21700   -1726347.4   -5.0389106    32.089033    4.6012415    -142.0416    64.753939   -6.1762566 
   21800   -1726347.4   -5.0491999    31.972197    4.5739353   -141.92289    64.871446   -6.1611826 
   21900   -1726347.4   -5.0614783    31.852988    4.5472219   -141.80081    64.994818   -6.1444185 
   22000   -1726347.4   -5.0728162     31.74295    4.5300652   -141.69015    65.108461   -6.1282438 
   22100   -1726347.4   -5.0845543    31.637246    4.5150296   -141.57773    65.227792   -6.1113616 
   22200   -1726347.4   -5.1039438    31.527813    4.5012299   -141.47084    65.343691   -6.0926124 
   22300   -1726347.4   -5.1230402    31.432434     4.494612   -141.37367    65.456842   -6.0728229 
   22400   -1726347.5   -5.1457113    31.333698    4.4958047   -141.27451    65.573407   -6.0503315 
   22500   -1726347.5   -5.1665521     31.23791    4.5028942   -141.17902    65.690328   -6.0277802 
   22600   -1726347.5   -5.1835396     31.14793    4.5052657   -141.08906    65.797992   -6.0044577 
   22700   -1726347.5   -5.1992666    31.058343    4.5050529   -140.99785    65.904585   -5.9809592 
   22800   -1726347.6    -5.212922    30.954412    4.5038944   -140.90124    66.015142   -5.9566105 
   22900   -1726347.6   -5.2287384     30.84698    4.4939441   -140.80748    66.119361   -5.9315812 
   23000   -1726347.6   -5.2440132    30.739337    4.4822493   -140.70899    66.224458    -5.907909 
   23100   -1726347.6   -5.2544005    30.623212    4.4645973   -140.60125    66.334534   -5.8839309 
   23200   -1726347.6   -5.2701522    30.511062    4.4487302   -140.49921    66.435534   -5.8616982 
   23300   -1726347.7    -5.279667    30.394367     4.429331   -140.38827    66.543627   -5.8384553 
   23400   -1726347.7   -5.2925659    30.273076    4.4061847   -140.27848    66.651022   -5.8159203 
   23500   -1726347.7   -5.2991208    30.162856    4.3820765   -140.16841    66.756395   -5.7918893 
   23600   -1726347.7   -5.3076561    30.048481    4.3554189   -140.04679    66.869307   -5.7659929 
   23700   -1726347.7   -5.3175492    29.937647    4.3301164   -139.93279    66.973994   -5.7404862 
   23800   -1726347.7   -5.3257069    29.822642    4.3022711   -139.81142    67.084472   -5.7147813 
   23900   -1726347.8   -5.3356583    29.711882    4.2751832   -139.69032    67.193157   -5.6876326 
   24000   -1726347.8   -5.3460747    29.598839    4.2476201   -139.56786    67.302088   -5.6606727 
   24100   -1726347.8    -5.363262    29.481639    4.2161034   -139.43715    67.415785   -5.6320675 
   24200   -1726347.8     -5.37381    29.373496    4.1892891   -139.31477    67.520044   -5.6071462 
   24300   -1726347.8   -5.3840383    29.263419    4.1588455   -139.18383    67.630318   -5.5792241 
   24400   -1726347.8   -5.4011594    29.150724    4.1239511   -139.04938    67.740943   -5.5487329 
   24500   -1726347.9    -5.419128    29.044527    4.0881518   -138.92215    67.845867   -5.5212666 
   24600   -1726347.9   -5.4394081    28.934522    4.0517459   -138.78553     67.95691   -5.4921578 
   24700   -1726347.9   -5.4588652    28.823204    4.0144842   -138.64707    68.068789   -5.4616996 
   24800   -1726347.9   -5.4814075    28.717854    3.9724843   -138.50995    68.178954   -5.4319714 
   24900   -1726347.9   -5.5024451    28.607022    3.9312669   -138.36591    68.294885   -5.3991437 
   25000   -1726347.9   -5.5217996    28.510767    3.8898814    -138.2268    68.407444   -5.3692619 
   25100     -1726348   -5.5418488    28.409403    3.8477284   -138.08392    68.526681    -5.335202 
   25200     -1726348   -5.5609334    28.312884    3.8020706   -137.94137    68.647068    -5.302462 
   25300     -1726348   -5.5789634    28.222725    3.7583084   -137.80118    68.763913   -5.2715407 
   25400     -1726348   -5.5975171    28.127676    3.7105544   -137.65362    68.886968   -5.2372434 
   25500     -1726348   -5.6145144    28.037053    3.6661975   -137.51438    69.003525   -5.2078392 
   25600   -1726348.1   -5.6269297    27.949437     3.623471   -137.37529     69.11966   -5.1790286 
   25700   -1726348.1   -5.6408776    27.857512      3.57845   -137.23157    69.236664     -5.15224 
   25800   -1726348.1   -5.6528692    27.769862    3.5363953    -137.0957    69.347036   -5.1274867 
   25900   -1726348.1   -5.6627539    27.674918    3.4954718   -136.95196    69.462352   -5.1027046 
   26000   -1726348.1   -5.6731838    27.586885    3.4578328   -136.81613    69.569404   -5.0773919 
   26100   -1726348.1   -5.6811833    27.497042      3.41671   -136.67722    69.681216   -5.0542959 
   26200   -1726348.1   -5.6866517    27.402433    3.3808392   -136.53626    69.793034   -5.0313452 
   26300   -1726348.2   -5.6917336    27.315714    3.3467023   -136.40042    69.898259   -5.0102004 
   26400   -1726348.2   -5.6936761     27.21974    3.3084813   -136.25644     70.00999   -4.9899141 
   26500   -1726348.2   -5.6974516    27.127742    3.2733127   -136.12569    70.109935   -4.9706868 
   26600   -1726348.2   -5.6969651    27.032518    3.2378722   -135.98444    70.218461   -4.9502438 
   26700   -1726348.2   -5.6956408    26.943884    3.2031125   -135.84857    70.319806   -4.9308012 
   26800   -1726348.2   -5.6950026    26.850206    3.1661904   -135.71228    70.423224   -4.9121834 
   26900   -1726348.2     -5.69217    26.749752    3.1306059   -135.57172    70.530772   -4.8931911 
   27000   -1726348.2   -5.6863444    26.654501    3.0967682   -135.43967     70.63012    -4.876087 
   27100   -1726348.2   -5.6777808    26.560904     3.063497   -135.30033    70.733047   -4.8598452 
   27200   -1726348.2    -5.667492    26.463402     3.028384   -135.15982     70.83663   -4.8439562 
   27300   -1726348.3   -5.6606258    26.364322    2.9940423   -135.02049    70.939099     -4.82888 
   27400   -1726348.3   -5.6507267    26.274973    2.9638797   -134.88786    71.036686   -4.8152489 
   27500   -1726348.3   -5.6383641    26.180235    2.9323547   -134.74869    71.137258    -4.801265 
   27600   -1726348.3   -5.6223356    26.083243    2.9039718   -134.60705    71.241363   -4.7888337 
   27700   -1726348.3   -5.6096273    25.991817     2.875002   -134.47698    71.334847   -4.7758436 
   27800   -1726348.3   -5.5955774    25.897343    2.8447116   -134.34275    71.433293   -4.7628202 
   27900   -1726348.3   -5.5790923    25.804746    2.8130663   -134.20006    71.535014   -4.7482881 
   28000   -1726348.3   -5.5615256    25.712095    2.7829604   -134.06491    71.631015   -4.7370016 
   28100   -1726348.3   -5.5416051    25.620077    2.7551751   -133.92987    71.727696   -4.7246488 
   28200   -1726348.3    -5.522079    25.523701    2.7275412    -133.7892    71.827002   -4.7130411 
   28300   -1726348.3    -5.502879    25.428172    2.6982397   -133.65112    71.922122    -4.701738 
   28400   -1726348.3   -5.4847089    25.336209    2.6701963    -133.5142    72.015679   -4.6900876 
   28500   -1726348.4    -5.461029    25.242639    2.6435104   -133.37311    72.112749   -4.6802681 
   28600   -1726348.4   -5.4419677    25.144952    2.6138718   -133.23362    72.210365   -4.6688536 
   28700   -1726348.4    -5.424877    25.055373    2.5879363   -133.10113    72.303027   -4.6587483 
   28800   -1726348.4   -5.4030047    24.960131    2.5593992   -132.96255     72.39894   -4.6462576 
   28900   -1726348.4   -5.3790863    24.864441    2.5310236   -132.82018    72.496938   -4.6342181 
   29000   -1726348.4   -5.3569863    24.775397    2.5057644   -132.68926     72.58607   -4.6243025 
   29100   -1726348.4   -5.3336692    24.684601    2.4799268   -132.55124    72.680089   -4.6155681 
   29200   -1726348.4   -5.3116989    24.589786    2.4544303   -132.40913    72.776455   -4.6067529 
   29300   -1726348.4   -5.2866234    24.498234    2.4306394   -132.27783     72.86642   -4.5977593 
   29400   -1726348.4   -5.2641229    24.403645    2.4068897   -132.14064    72.959446   -4.5894571 
   29500   -1726348.4   -5.2388992    24.311427    2.3815946   -131.99814    73.055045    -4.580753 
   29600   -1726348.4   -5.2141412    24.219004    2.3554054   -131.85919    73.148156   -4.5707544 
   29700   -1726348.5   -5.1857039     24.13077    2.3312698    -131.7232    73.238257   -4.5631432 
   29800   -1726348.5    -5.156626     24.04002    2.3084827   -131.58632    73.330122    -4.555405 
   29900   -1726348.5   -5.1277068     23.94721    2.2852767   -131.44567      73.4231   -4.5496436 
   30000   -1726348.5   -5.1007613    23.854874     2.258761   -131.30568    73.516423   -4.5417016 
   30100   -1726348.5   -5.0717397    23.766854    2.2353456   -131.17133    73.605802    -4.534834 
   30200   -1726348.5   -5.0411562     23.67788    2.2130511    -131.0302    73.697978   -4.5283249 
   30300   -1726348.5   -5.0121493    23.585679    2.1885327    -130.8885    73.790413    -4.521828 
   30400   -1726348.5    -4.982247    23.498594    2.1681101   -130.75576    73.879033    -4.515272 
   30500   -1726348.5    -4.952014    23.406861    2.1471696   -130.61605    73.972026    -4.508623 
   30600   -1726348.5   -4.9213751    23.312897    2.1247811   -130.47115    74.066579   -4.5011287 
   30700   -1726348.5   -4.8956572    23.227507    2.0987739   -130.33725    74.155429   -4.4931991 
   30800   -1726348.5   -4.8669829    23.142245    2.0767003   -130.20469    74.244985   -4.4879765 
   30900   -1726348.5   -4.8383199    23.053079    2.0536126   -130.06498     74.33561   -4.4806885 
   31000   -1726348.6   -4.8074465    22.964504     2.030785   -129.92303    74.428356   -4.4743688 
   31100   -1726348.6   -4.7804228    22.874618    2.0090579   -129.78571    74.516446   -4.4691268 
   31200   -1726348.6   -4.7510048    22.788555    1.9879507   -129.65017    74.603768   -4.4659105 
   31300   -1726348.6   -4.7204657    22.696446    1.9650276    -129.5089    74.695062   -4.4608981 
   31400   -1726348.6   -4.6891716    22.604036    1.9410506   -129.36444    74.787015   -4.4568901 
   31500   -1726348.6   -4.6605567    22.515334    1.9192354   -129.22912    74.872885   -4.4530061 
   31600   -1726348.6   -4.6266687    22.425728    1.8977003   -129.09308    74.960084   -4.4489087 
   31700   -1726348.6   -4.5963936    22.334209    1.8750987   -128.95113    75.049941   -4.4474764 
   31800   -1726348.6   -4.5646404    22.247348    1.8533855   -128.81382    75.135326   -4.4441332 
   31900   -1726348.6   -4.5289817    22.161248    1.8321335   -128.67682     75.22107   -4.4420381 
   32000   -1726348.6   -4.4950674      22.0725    1.8127294   -128.53262    75.310856   -4.4373467 
   32100   -1726348.6   -4.4635591     21.98852    1.7925546   -128.39605    75.395256     -4.43437 
   32200   -1726348.6   -4.4308295    21.900446     1.772426   -128.25848    75.479868    -4.430993 
   32300   -1726348.7   -4.3974175    21.809544    1.7503471   -128.11331    75.568986   -4.4287803 
   32400   -1726348.7   -4.3668379    21.723829    1.7308018   -127.97769    75.651872   -4.4250878 
   32500   -1726348.7   -4.3360494    21.638054     1.713778   -127.83902    75.737347    -4.420784 
   32600   -1726348.7   -4.3026071      21.5492    1.6936746    -127.6973    75.824369   -4.4180849 
   32700   -1726348.7   -4.2712365    21.467607    1.6744943   -127.56163    75.906618   -4.4144948 
   32800   -1726348.7   -4.2369167    21.382637    1.6558244   -127.41815    75.994373   -4.4118441 
   32900   -1726348.7   -4.2035383    21.299708    1.6371425   -127.27893    76.078489   -4.4095571 
   33000   -1726348.7   -4.1705931    21.219644    1.6178713   -127.14159     76.16197   -4.4064765 
   33100   -1726348.7   -4.1374059    21.133828    1.5980338   -126.99645    76.249907    -4.402821 
   33200   -1726348.7   -4.1037826    21.056447      1.58091   -126.86283    76.331239   -4.3998792 
   33300   -1726348.7   -4.0700473    20.971551    1.5602954   -126.72196    76.417161    -4.396589 
   33400   -1726348.7   -4.0340449    20.886168    1.5387792    -126.5802    76.503507   -4.3943323 
   33500   -1726348.7   -4.0028276     20.80604    1.5177275   -126.44381    76.584052   -4.3901041 
   33600   -1726348.7   -3.9689231    20.724369    1.4971837   -126.30369    76.666367   -4.3881554 
   33700   -1726348.8   -3.9371457    20.640673     1.475633   -126.15953    76.750493    -4.385114 
   33800   -1726348.8   -3.9070233    20.561633    1.4564929   -126.02633    76.832139   -4.3810148 
   33900   -1726348.8   -3.8758917    20.483389    1.4342936   -125.88551      76.9155   -4.3777048 
   34000   -1726348.8   -3.8440262    20.401524    1.4125258   -125.74344    77.000314   -4.3728556 
   34100   -1726348.8   -3.8102609    20.325875    1.3925731   -125.60927    77.079498   -4.3705128 
   34200   -1726348.8   -3.7734529     20.24514    1.3740774   -125.46822    77.163187   -4.3679207 
   34300   -1726348.8   -3.7418059    20.165956    1.3536956   -125.32657    77.246625   -4.3649385 
   34400   -1726348.8   -3.7094933    20.094179    1.3355523   -125.19169    77.325919   -4.3613821 
   34500   -1726348.8   -3.6761251    20.017863    1.3148206   -125.04881    77.407431   -4.3579225 
   34600   -1726348.8   -3.6458647    19.941497    1.2935163   -124.90736    77.486552   -4.3550097 
   34700   -1726348.8    -3.615301    19.866867    1.2735293   -124.77114    77.563511   -4.3521621 
   34800   -1726348.8   -3.5837734    19.788605    1.2530301   -124.63071    77.644658   -4.3499073 
   34900   -1726348.8   -3.5494952    19.708708     1.230436   -124.48778    77.727727   -4.3471699 
   35000   -1726348.9   -3.5213683    19.632605    1.2097636   -124.35503    77.802665   -4.3459863 
   35100   -1726348.9    -3.489535    19.555435    1.1901409   -124.21757    77.881663   -4.3431084 
   35200   -1726348.9   -3.4581921    19.479351    1.1708571   -124.07696     77.95974   -4.3414045 
   35300   -1726348.9   -3.4276806    19.400792    1.1490908   -123.93475     78.03758   -4.3384995 
   35400   -1726348.9   -3.3992149    19.328888     1.129744   -123.80318    78.110639   -4.3361768 
   35500   -1726348.9   -3.3692953    19.254231    1.1107196   -123.66509     78.18549   -4.3332709 
   35600   -1726348.9   -3.3370132    19.176259    1.0913322   -123.52095     78.26269   -4.3304806 
   35700   -1726348.9   -3.3078706    19.103519    1.0717006   -123.39033    78.333945    -4.328192 
   35800   -1726348.9   -3.2793488    19.030897    1.0525778   -123.25332    78.407267   -4.3251784 
   35900   -1726348.9   -3.2484497    18.955037    1.0331514   -123.11238    78.482141   -4.3223711 
   36000   -1726348.9   -3.2164508    18.882412    1.0139345   -122.97905    78.549676   -4.3205976 
   36100   -1726348.9   -3.1841929    18.808453   0.99420118   -122.83905    78.622313   -4.3180644 
   36200   -1726348.9   -3.1533797    18.732812   0.97557743   -122.70237    78.692342   -4.3151737 
   36300   -1726348.9   -3.1237895    18.657436   0.95553026   -122.56629    78.760113   -4.3139922 
   36400     -1726349   -3.0929029    18.581645   0.93492412   -122.42587    78.828736   -4.3121791 
   36500     -1726349   -3.0638482    18.511552   0.91779971   -122.29038     78.89337    -4.310061 
   36600     -1726349   -3.0354096    18.439061   0.89935264   -122.15803    78.956016   -4.3086182 
   36700     -1726349    -3.003509     18.36836    0.8807917    -122.0201    79.017972   -4.3068185 
   36800     -1726349   -2.9707289    18.295383   0.86346975   -121.87869    79.079907    -4.305163 
   36900     -1726349   -2.9402085    18.234746   0.84832294   -121.74857    79.135469   -4.3039179 
   37000     -1726349   -2.9080089    18.173173   0.83359705    -121.6172    79.190131   -4.3013559 
   37100     -1726349   -2.8761465    18.114983   0.82018856   -121.48318    79.243698   -4.2985455 
   37200     -1726349   -2.8406032    18.059874   0.80610217   -121.34875    79.297447   -4.2955815 
   37300     -1726349   -2.8093259    18.007933    0.7913674   -121.22436    79.345549   -4.2915656 
   37400     -1726349   -2.7796505    17.954126   0.77757017   -121.09733    79.393202   -4.2868963 
   37500     -1726349   -2.7466543    17.902572   0.76720273   -120.96907    79.440956   -4.2817416 
   37600   -1726349.1   -2.7107175    17.851553   0.75624002   -120.84041    79.485248   -4.2767439 
   37700   -1726349.1   -2.6766044    17.800062   0.74408534   -120.72189    79.526915   -4.2694679 
   37800   -1726349.1   -2.6442809    17.747763    0.7311834   -120.60047     79.56752   -4.2594607 
   37900   -1726349.1   -2.6069207     17.68924   0.71459067   -120.47603    79.609107   -4.2514664 
   38000   -1726349.1   -2.5750156    17.625851   0.69681412   -120.35204    79.648654   -4.2419124 
   38100   -1726349.1   -2.5436894    17.564178   0.68090689   -120.23142     79.68485   -4.2349588 
   38200   -1726349.1   -2.5134397    17.495499   0.66137939   -120.10592    79.720743   -4.2255827 
   38300   -1726349.1   -2.4797086    17.423047   0.64119463   -119.97838    79.756566   -4.2144833 
   38400   -1726349.1   -2.4412576     17.34968   0.62238462   -119.84835    79.789761   -4.2053425 
   38500   -1726349.2   -2.4079731    17.280219   0.60391773   -119.72492     79.81916   -4.1958831 
   38600   -1726349.2   -2.3694342    17.211445   0.58525377   -119.60089    79.847171     -4.18556 
   38700   -1726349.2   -2.3314672    17.136623   0.56464713   -119.47269     79.87245   -4.1762054 
   38800   -1726349.2   -2.2929309     17.05968   0.54559756   -119.33955     79.89707   -4.1664124 
   38900   -1726349.2   -2.2540626    16.982768   0.52801751   -119.21303    79.918216   -4.1557754 
   39000   -1726349.2   -2.2133963    16.907854   0.51210567   -119.08711    79.938738   -4.1467377 
   39100   -1726349.2   -2.1693263    16.834816   0.49869129   -118.95567    79.957952   -4.1383888 
   39200   -1726349.2   -2.1261429    16.757095    0.4820051   -118.82265    79.973017   -4.1287911 
   39300   -1726349.2   -2.0859557    16.684969   0.46603326   -118.69412     79.98876   -4.1199607 
   39400   -1726349.2   -2.0406611    16.611031   0.45306001    -118.5611    80.005997   -4.1107132 
   39500   -1726349.3   -1.9958298    16.534896   0.43842357   -118.42421    80.025616   -4.1012065 
   39600   -1726349.3   -1.9515122    16.467204    0.4286292   -118.29507     80.04426    -4.094957 
   39700   -1726349.3   -1.9074809    16.393211   0.41381209   -118.16048    80.063722   -4.0900022 
   39800   -1726349.3   -1.8628551    16.317629   0.39824645   -118.02663    80.085135    -4.084567 
   39900   -1726349.3   -1.8198309    16.242563   0.38353754   -117.89306    80.106575   -4.0806368 
   40000   -1726349.3   -1.7762055    16.174299   0.37198887    -117.7573    80.130276   -4.0777621 
   40100   -1726349.3   -1.7319934    16.101948    0.3599167   -117.62228    80.154049   -4.0734975 
   40200   -1726349.3   -1.6898705    16.022729   0.34447021   -117.48194     80.17803   -4.0690697 
   40300   -1726349.3   -1.6498975    15.949042     0.332755   -117.34961    80.198096   -4.0661035 
   40400   -1726349.3    -1.612653    15.870347   0.31827856   -117.21122    80.221903   -4.0631674 
   40500   -1726349.3   -1.5717758     15.78953    0.3020705   -117.07011    80.247496   -4.0593862 
   40600   -1726349.3   -1.5317706     15.71163   0.28806873   -116.93388    80.270577   -4.0558929 
   40700   -1726349.3   -1.4950941     15.63761   0.27230337   -116.79781    80.294137   -4.0536746 
   40800   -1726349.3   -1.4533911    15.560178   0.25706497   -116.65496    80.319967   -4.0509842 
   40900   -1726349.4   -1.4127707    15.482841   0.24006366   -116.51764    80.343107   -4.0476212 
   41000   -1726349.4   -1.3725928     15.40594   0.22486865    -116.3796    80.367602   -4.0446076 
   41100   -1726349.4   -1.3311124    15.324861   0.21095762   -116.23631    80.391105   -4.0409391 
   41200   -1726349.4   -1.2922776    15.248225   0.19529402   -116.10317     80.41425   -4.0374896 
   41300   -1726349.4   -1.2507749    15.171359   0.18144851   -115.96531     80.43717    -4.034807 
   41400   -1726349.4   -1.2094958    15.089884   0.16836472   -115.82434    80.460288   -4.0314639 
   41500   -1726349.4   -1.1716968     15.01211    0.1534775   -115.68957    80.481442   -4.0278062 
   41600   -1726349.4   -1.1345558     14.93379   0.13617547    -115.5489    80.504234   -4.0239287 
   41700   -1726349.4   -1.0929706    14.855316   0.11936885   -115.40946    80.528727   -4.0208452 
   41800   -1726349.4   -1.0561022    14.776244   0.10330834   -115.27457     80.55077   -4.0183724 
   41900   -1726349.4   -1.0166779     14.69207  0.086965223   -115.13037    80.573138   -4.0151272 
   42000   -1726349.4  -0.98040699    14.611916  0.070268088   -114.99504    80.595079   -4.0114169 
   42100   -1726349.4  -0.94202197    14.531809  0.054217031   -114.85405    80.616871   -4.0090562 
   42200   -1726349.4  -0.90314504    14.448949  0.041660604   -114.71281    80.637887   -4.0061893 
   42300   -1726349.4  -0.86699514     14.37309  0.024915208   -114.57307    80.659636   -4.0025429 
   42400   -1726349.5  -0.82808517    14.291416  0.009397327   -114.42816    80.681022   -3.9991345 
   42500   -1726349.5   -0.7923395    14.218937 -0.0068300009   -114.29008    80.700036   -3.9956045 
   42600   -1726349.5  -0.75410178    14.136727 -0.024926823   -114.14754    80.719317    -3.992945 
   42700   -1726349.5  -0.71628004    14.059821 -0.041150291   -114.00746    80.739659   -3.9903171 
   42800   -1726349.5  -0.68030395    13.976839  -0.05825062   -113.86654    80.760569   -3.9873854 
   42900   -1726349.5  -0.64111167    13.893992 -0.073080731   -113.71872    80.780008   -3.9848119 
   43000   -1726349.5  -0.60522927    13.819088 -0.089456893   -113.58112    80.799673   -3.9821054 
   43100   -1726349.5  -0.56798479    13.738627  -0.10576593   -113.43609    80.819408   -3.9779498 
   43200   -1726349.5  -0.52894203    13.656797  -0.12216456   -113.28753    80.837553   -3.9754085 
   43300   -1726349.5   -0.4924195    13.578038  -0.13904667    -113.1491    80.855298   -3.9727498 
   43400   -1726349.5  -0.45736241    13.496446  -0.15429936   -113.00716    80.873977   -3.9709087 
   43500   -1726349.5  -0.41798721    13.414857  -0.16933734   -112.85933    80.890316   -3.9693391 
   43600   -1726349.5  -0.38001692    13.329995  -0.18614705   -112.71447    80.906528   -3.9673485 
   43700   -1726349.5   -0.3440537    13.246546  -0.20488273   -112.57546    80.921894    -3.966805 
   43800   -1726349.6  -0.30807856    13.160569  -0.22271389   -112.43153    80.935742   -3.9660405 
   43900   -1726349.6   -0.2700946    13.079452  -0.23876072   -112.28434    80.952328   -3.9638877 
   44000   -1726349.6   -0.2322243     13.00313  -0.25440609   -112.14103    80.969909   -3.9608873 
   44100   -1726349.6  -0.19611372    12.928965  -0.26986877   -112.00138    80.985585    -3.957258 
   44200   -1726349.6   -0.1616131    12.846002   -0.2898583    -111.8568    81.000606   -3.9537641 
   44300   -1726349.6  -0.12891318    12.757188  -0.30896106   -111.70904    81.014229   -3.9501729 
   44400   -1726349.6 -0.095558981    12.676498  -0.32747517   -111.56937    81.027748   -3.9470598 
   44500   -1726349.6 -0.061999371    12.595022   -0.3468932   -111.42206    81.041758   -3.9437268 
   44600   -1726349.6 -0.028277725    12.512422  -0.36720789   -111.27731    81.052245   -3.9408513 
   44700   -1726349.6 0.0052752873    12.435093  -0.38294883   -111.13212    81.064218   -3.9367883 
   44800   -1726349.6   0.03939912    12.349964  -0.40192834   -110.98263    81.078128   -3.9328252 
   44900   -1726349.6  0.074497817    12.272195   -0.4198024   -110.83983    81.095577   -3.9312572 
   45000   -1726349.6   0.10809604    12.189164   -0.4378992   -110.68686    81.124259   -3.9306475 
   45100   -1726349.7   0.14200769    12.106616  -0.45421578   -110.53426    81.171095   -3.9355637 
   45200   -1726349.7   0.18143234    12.016977  -0.47155843   -110.37539    81.221489   -3.9393243 
   45300   -1726349.7   0.21963474    11.920982  -0.49151837   -110.21262    81.272316   -3.9429806 
   45400   -1726349.7   0.25512204    11.831524  -0.51058989   -110.05867    81.318604   -3.9433396 
   45500   -1726349.7   0.29778187    11.736956  -0.52722687   -109.90041     81.36583    -3.941149 
   45600   -1726349.7   0.33209066    11.643093   -0.5487213   -109.74366    81.409861    -3.940572 
   45700   -1726349.7   0.36774263    11.547698  -0.56506635   -109.59102    81.452307   -3.9415125 
   45800   -1726349.7   0.40921204    11.449316  -0.58188809   -109.43135    81.495349   -3.9415977 
   45900   -1726349.8   0.44467543    11.352752  -0.59790357   -109.28493    81.532518   -3.9419733 
   46000   -1726349.8   0.47845233    11.254145  -0.61555709   -109.13325    81.570555   -3.9412999 
   46100   -1726349.8   0.51554795    11.155773  -0.63254904   -108.98255    81.605085   -3.9421442 
   46200   -1726349.8   0.55301515    11.059487  -0.64589333   -108.83733    81.635594   -3.9439089 
   46300   -1726349.8    0.5875451    10.952953  -0.65931094   -108.69028    81.663917    -3.945823 
   46400   -1726349.8   0.61993924    10.852485  -0.67483167   -108.55356    81.693264   -3.9485562 
   46500   -1726349.8   0.65689886    10.752816  -0.68588468    -108.4123    81.722098   -3.9499846 
   46600   -1726349.9   0.69174291    10.654973  -0.69596966   -108.27822    81.745713   -3.9527109 
   46700   -1726349.9   0.72776776    10.558495  -0.70505851   -108.14222    81.770591   -3.9579701 
   46800   -1726349.9   0.76303047    10.461007  -0.71429606   -108.00948    81.796089   -3.9627797 
   46900   -1726349.9   0.79410673    10.368755  -0.72243172   -107.87606    81.823367   -3.9690704 
   47000   -1726349.9   0.82737177    10.275475  -0.73086607   -107.74308    81.849218   -3.9760949 
   47100   -1726349.9   0.86007072    10.188748  -0.74129116   -107.61549    81.873393   -3.9829125 
   47200     -1726350   0.89600942     10.10234  -0.75024179    -107.4885    81.897003   -3.9882925 
   47300     -1726350   0.93085683    10.024484  -0.75376779   -107.36322    81.921506   -3.9947875 
   47400     -1726350   0.96156635    9.9397522  -0.75925495   -107.23473    81.948662   -4.0028757 
   47500     -1726350   0.99260207    9.8652767   -0.7594188   -107.11477    81.974795   -4.0099519 
   47600     -1726350    1.0256711    9.7944595  -0.76146421   -106.98946    82.002549   -4.0162836 
   47700     -1726350    1.0540798    9.7269254  -0.76488552    -106.8689    82.033171   -4.0211994 
   47800     -1726350    1.0861602     9.659622  -0.76711112   -106.73968    82.068361   -4.0269725 
   47900   -1726350.1    1.1117046    9.5999228  -0.77064744   -106.62002    82.104632   -4.0301403 
   48000   -1726350.1    1.1381376    9.5392982   -0.7679961   -106.49074    82.143337     -4.03382 
   48100   -1726350.1    1.1625592    9.4731144  -0.77491852   -106.36481    82.180565   -4.0390024 
   48200   -1726350.1    1.1886374    9.4106557  -0.78175072   -106.23607    82.218541   -4.0440069 
   48300   -1726350.1    1.2143039     9.347075  -0.78909604   -106.10374    82.256818   -4.0474778 
   48400   -1726350.1    1.2398738    9.2880488  -0.79498348   -105.97545    82.297575   -4.0525794 
   48500   -1726350.1    1.2658216    9.2267568  -0.79959577   -105.83886    82.341571   -4.0566896 
   48600   -1726350.1    1.2893906    9.1698816  -0.80420519   -105.70836    82.383101   -4.0618719 
   48700   -1726350.1    1.3135165    9.1105463  -0.81165953    -105.5735    82.427314   -4.0644099 
   48800   -1726350.2     1.338456    9.0485832   -0.8206228   -105.43212    82.475228    -4.066303 
   48900   -1726350.2    1.3579655    8.9880498   -0.8295547    -105.2987    82.520168   -4.0675788 
   49000   -1726350.2    1.3838067    8.9284721  -0.83930708   -105.16219    82.566494   -4.0681921 
   49100   -1726350.2     1.405952    8.8625049  -0.85140158   -105.02025    82.615702   -4.0691029 
   49200   -1726350.2    1.4294122    8.8001264  -0.86243116   -104.88451    82.661763    -4.069811 
   49300   -1726350.2    1.4555522    8.7407376  -0.87090463     -104.749    82.707698   -4.0703221 
   49400   -1726350.2    1.4802346     8.676032   -0.8803756   -104.60919    82.756168    -4.069435 
   49500   -1726350.2    1.5022876    8.6153516   -0.8902703   -104.47529    82.804188   -4.0685324 
   49600   -1726350.2    1.5271885    8.5544317   -0.9006545   -104.34044    82.852257   -4.0691317 
   49700   -1726350.2    1.5527937    8.4873788  -0.91241616    -104.1985    82.903303   -4.0698433 
   49800   -1726350.3    1.5781519    8.4262162  -0.92113852   -104.06782    82.949218   -4.0679029 
   49900   -1726350.3    1.6029916    8.3601005  -0.93145383   -103.93193    82.999119   -4.0667808 
   50000   -1726350.3     1.628862    8.2975255  -0.94314461   -103.79809     83.04828   -4.0653615 
   50100   -1726350.3    1.6554563    8.2362725  -0.95625224   -103.66637    83.097099    -4.063847 
   50200   -1726350.3    1.6829767    8.1703145  -0.96913797    -103.5282    83.146106   -4.0627021 
   50300   -1726350.3    1.7075853     8.107207  -0.98116209    -103.3966    83.192294   -4.0611157 
   50400   -1726350.3    1.7311095    8.0422905  -0.99453079    -103.2627    83.239795   -4.0595448 
   50500   -1726350.3    1.7596821    7.9759616   -1.0078569   -103.12427     83.29039   -4.0590139 
   50600   -1726350.3    1.7863881    7.9137556   -1.0203561   -102.99497    83.337275    -4.058117 
   50700   -1726350.3    1.8144617    7.8528768   -1.0315954   -102.86099      83.3861   -4.0561193 
   50800   -1726350.3     1.842642    7.7899555    -1.039723   -102.72387    83.434731   -4.0554438 
   50900   -1726350.3    1.8667202    7.7279509   -1.0533982   -102.59295    83.480399   -4.0554012 
   51000   -1726350.3    1.8959969    7.6664588   -1.0641163   -102.46003    83.527198   -4.0553089 
   51100   -1726350.3    1.9232792    7.6001252   -1.0767032   -102.32289    83.575484   -4.0566069 
   51200   -1726350.3    1.9482466    7.5409685   -1.0877645   -102.19566     83.61922   -4.0551763 
   51300   -1726350.4    1.9783339     7.480058   -1.0968582   -102.06215    83.667031   -4.0551583 
   51400   -1726350.4    2.0075064    7.4165939   -1.1110545   -101.92576    83.715422   -4.0539351 
   51500   -1726350.4    2.0355009    7.3577752   -1.1214762   -101.79809    83.758978   -4.0538223 
   51600   -1726350.4    2.0646838    7.2974074   -1.1327617   -101.66678     83.80396    -4.054252 
   51700   -1726350.4    2.0965476    7.2329656   -1.1441843   -101.53166    83.852338    -4.054217 
   51800   -1726350.4    2.1246531    7.1735318   -1.1565098   -101.40126     83.89858   -4.0524489 
   51900   -1726350.4    2.1523918    7.1114794   -1.1692918   -101.27358    83.943923   -4.0510353 
   52000   -1726350.4    2.1843454    7.0485024   -1.1810729   -101.13842    83.990115   -4.0495526 
   52100   -1726350.4    2.2120558     6.983766   -1.1935718   -101.00442    84.036604   -4.0479913 
   52200   -1726350.4    2.2417653    6.9249117   -1.2044057   -100.87713    84.081846   -4.0470435 
   52300   -1726350.4     2.271308    6.8628395   -1.2168574   -100.74725    84.129238   -4.0475192 
   52400   -1726350.4     2.300096    6.7986363   -1.2288053   -100.61643    84.173479   -4.0470292 
   52500   -1726350.4    2.3271248    6.7393213   -1.2395541   -100.48842    84.218027   -4.0466999 
   52600   -1726350.4    2.3521535    6.6739891   -1.2522201   -100.35535     84.26372   -4.0477941 
   52700   -1726350.4    2.3798435     6.610887   -1.2645967   -100.22242    84.308603    -4.048057 
   52800   -1726350.4    2.4031788    6.5451265    -1.276365   -100.09483    84.353129   -4.0479645 
   52900   -1726350.5    2.4274441    6.4819011   -1.2886502   -99.959969    84.400353   -4.0494154 
   53000   -1726350.5    2.4542755    6.4204032   -1.2999383   -99.831875    84.444591   -4.0517912 
   53100   -1726350.5    2.4823294    6.3564345    -1.311637   -99.700824    84.488703   -4.0526641 
   53200   -1726350.5    2.5109008    6.2929462   -1.3232806   -99.565852    84.533258   -4.0539926 
   53300   -1726350.5    2.5379306    6.2275885   -1.3333077   -99.436519    84.577073   -4.0553068 
   53400   -1726350.5    2.5671384    6.1706003   -1.3441166   -99.308461     84.62046   -4.0573124 
   53500   -1726350.5    2.5950694    6.1068404   -1.3557916   -99.176658    84.666458   -4.0601485 
   53600   -1726350.5    2.6249341     6.046997    -1.365334   -99.043638    84.711354   -4.0614309 
   53700   -1726350.5    2.6524486    5.9894577   -1.3723553   -98.917393    84.754325   -4.0640071 
   53800   -1726350.5    2.6820775    5.9290776   -1.3797418   -98.788509    84.798184   -4.0655332 
   53900   -1726350.5    2.7115072    5.8685708   -1.3886891   -98.654661    84.843256    -4.069025 
   54000   -1726350.5    2.7393788    5.8089063    -1.399502   -98.522869    84.887883   -4.0719744 
   54100   -1726350.5    2.7689859    5.7510793    -1.410428   -98.398622    84.928186   -4.0735379 
   54200   -1726350.5    2.7994928    5.6914096   -1.4208784   -98.271311    84.969685   -4.0757981 
   54300   -1726350.5    2.8282905    5.6349874   -1.4299558   -98.140044    85.012889   -4.0779839 
   54400   -1726350.6    2.8566364    5.5788768   -1.4384656   -98.012198    85.055191   -4.0782934 
   54500   -1726350.6    2.8837183     5.523227   -1.4487938   -97.888484    85.096848   -4.0800421 
   54600   -1726350.6    2.9164103    5.4670517   -1.4574437   -97.760746    85.140106   -4.0815511 
   54700   -1726350.6    2.9438084    5.4109058   -1.4663738    -97.63573    85.181741   -4.0820814 
   54800   -1726350.6    2.9713142    5.3576749   -1.4759388   -97.513633    85.221793    -4.084224 
   54900   -1726350.6    2.9982699    5.3025348   -1.4856146   -97.387395    85.263838   -4.0862703 
   55000   -1726350.6    3.0243804    5.2484409   -1.4940896   -97.265336    85.303149   -4.0881771 
   55100   -1726350.6    3.0518675    5.1946103   -1.5027946   -97.143673    85.342135     -4.09015 
   55200   -1726350.6     3.079342    5.1419214   -1.5139683   -97.017684    85.379845   -4.0899347 
   55300   -1726350.6    3.1085592    5.0871399     -1.52193   -96.898534    85.417091   -4.0915682 
   55400   -1726350.6    3.1364277    5.0272011   -1.5293645    -96.77423    85.454991   -4.0934731 
   55500   -1726350.6    3.1643744    4.9747898   -1.5380601   -96.658758    85.490376   -4.0951739 
   55600   -1726350.6    3.1938475    4.9223869   -1.5458922   -96.533992    85.528532   -4.0968047 
   55700   -1726350.6    3.2269379    4.8690838    -1.554853   -96.417079    85.564819   -4.0981789 
   55800   -1726350.6    3.2547388    4.8163764   -1.5639524   -96.294415    85.602866   -4.0989436 
   55900   -1726350.6    3.2808656    4.7626321   -1.5733896   -96.177033    85.639393   -4.1008758 
   56000   -1726350.6    3.3098308    4.7086772   -1.5841544   -96.054729    85.677741     -4.10266 
   56100   -1726350.6    3.3382584    4.6575197   -1.5947399   -95.937468    85.712651   -4.1048675 
   56200   -1726350.6    3.3672888    4.6046597   -1.6054544   -95.815644    85.749607   -4.1066101 
   56300   -1726350.7    3.3972746    4.5540483   -1.6148803   -95.697518    85.785139   -4.1088084 
   56400   -1726350.7    3.4272697     4.505441   -1.6241916   -95.578781    85.821621    -4.109272 
   56500   -1726350.7    3.4538918    4.4516182   -1.6349771   -95.460298      85.8567   -4.1103861 
   56600   -1726350.7    3.4826795    4.4019998   -1.6442057   -95.343402    85.892683   -4.1105118 
   56700   -1726350.7    3.5115037    4.3491335   -1.6546047   -95.219137    85.928676   -4.1108909 
   56800   -1726350.7    3.5378523    4.3002112   -1.6659627   -95.105222    85.962935   -4.1107421 
   56900   -1726350.7    3.5664746    4.2473743   -1.6772809   -94.985879    85.998281   -4.1107213 
   57000   -1726350.7    3.5958054    4.1958449   -1.6867365   -94.866785    86.033713   -4.1115099 
   57100   -1726350.7    3.6236797    4.1498618   -1.6965786   -94.752932     86.06708   -4.1123257 
   57200   -1726350.7    3.6538975    4.0962971   -1.7060523   -94.630972    86.101232   -4.1130316 
   57300   -1726350.7    3.6771551    4.0436402   -1.7184944    -94.51578    86.134316   -4.1124041 
   57400   -1726350.7     3.706549     3.998432   -1.7288097   -94.395843    86.168727   -4.1121976 
   57500   -1726350.7    3.7317604    3.9490791   -1.7388164   -94.277339    86.202198   -4.1120571 
   57600   -1726350.7     3.760074    3.9027953   -1.7492915   -94.160943     86.23506   -4.1130751 
   57700   -1726350.7    3.7883574    3.8528804   -1.7595677   -94.040426     86.26813   -4.1142259 
   57800   -1726350.7     3.814158    3.8060814    -1.766988   -93.926668    86.298318   -4.1150214 
   57900   -1726350.7    3.8403997    3.7577193   -1.7777493   -93.807746    86.330799    -4.116774 
   58000   -1726350.7    3.8661936    3.7064042   -1.7887586   -93.690211    86.362403   -4.1181143 
   58100   -1726350.7    3.8922985    3.6580109   -1.7994691   -93.575333    86.393094   -4.1196062 
   58200   -1726350.7    3.9197967    3.6055665   -1.8114963   -93.455381      86.4237   -4.1208232 
   58300   -1726350.8    3.9475121    3.5577569   -1.8210284   -93.343001    86.453724   -4.1220574 
   58400   -1726350.8    3.9764846    3.5122014   -1.8288576   -93.227263    86.484726   -4.1238219 
   58500   -1726350.8    4.0045907    3.4623435   -1.8393736   -93.109529    86.515565   -4.1254139 
   58600   -1726350.8    4.0313178    3.4152003   -1.8496276   -92.997103     86.54565   -4.1263854 
   58700   -1726350.8    4.0585795    3.3670635   -1.8593355   -92.880943    86.575648   -4.1273449 
   58800   -1726350.8    4.0850328     3.318404   -1.8703789   -92.768169    86.605166   -4.1273626 
   58900   -1726350.8    4.1118787    3.2725545   -1.8805157   -92.655258    86.634657   -4.1296491 
   59000   -1726350.8    4.1407248    3.2216375   -1.8912747   -92.537531    86.664587    -4.131298 
   59100   -1726350.8    4.1679444    3.1747905   -1.9018243   -92.423511    86.693064    -4.131844 
   59200   -1726350.8    4.1965039    3.1294183   -1.9121446   -92.309465    86.722497   -4.1325543 
   59300   -1726350.8    4.2261249    3.0814223   -1.9233776   -92.191266    86.753974    -4.133669 
   59400   -1726350.8     4.251163    3.0380239   -1.9344085   -92.080882    86.782361   -4.1342645 
   59500   -1726350.8    4.2783753    2.9938548   -1.9456886   -91.965216    86.812892   -4.1352524 
   59600   -1726350.8    4.3035938    2.9481365   -1.9561381   -91.851206    86.841597   -4.1364826 
   59700   -1726350.8    4.3285873    2.9018373   -1.9666746   -91.739714    86.868773   -4.1393256 
   59800   -1726350.8    4.3543192    2.8546283   -1.9767713   -91.622878    86.897498   -4.1402001 
   59900   -1726350.8    4.3803445    2.8093259   -1.9851315   -91.511151    86.924136   -4.1423609 
   60000   -1726350.8    4.4054808    2.7636497   -1.9942785   -91.398722    86.950062   -4.1447535 
   60100   -1726350.8    4.4336348    2.7162338   -2.0020398   -91.281993    86.977326   -4.1464435 
   60200   -1726350.8    4.4582445    2.6705648   -2.0094807   -91.174093    87.003429   -4.1479765 
   60300   -1726350.8    4.4845474    2.6234048   -2.0184183   -91.061859    87.030613   -4.1489814 
   60400   -1726350.8    4.5095334    2.5750586   -2.0310867   -90.945846    87.057957   -4.1500384 
   60500   -1726350.9    4.5354211    2.5300436   -2.0405079   -90.835109    87.084085   -4.1513602 
   60600   -1726350.9    4.5614615    2.4824135   -2.0514675   -90.724034    87.110474   -4.1529948 
   60700   -1726350.9    4.5871555    2.4353412   -2.0606169   -90.609465    87.137105   -4.1551492 
   60800   -1726350.9    4.6111839    2.3858877   -2.0714381   -90.499688    87.162787   -4.1565094 
   60900   -1726350.9    4.6342782    2.3375585     -2.08389   -90.388699    87.188516   -4.1575147 
   61000   -1726350.9    4.6596449    2.2908405   -2.0934445   -90.273689    87.215355   -4.1591914 
   61100   -1726350.9     4.684664    2.2437358   -2.1044624   -90.165055     87.24033   -4.1617946 
   61200   -1726350.9    4.7093053    2.1973239    -2.116594   -90.057182    87.266112   -4.1634216 
   61300   -1726350.9    4.7359235    2.1466847   -2.1290952   -89.944709    87.291322   -4.1647716 
   61400   -1726350.9    4.7584684    2.0971668   -2.1415057   -89.839342    87.315475   -4.1651203 
   61500   -1726350.9    4.7811668    2.0473256    -2.153824   -89.729782    87.339873   -4.1658091 
   61600   -1726350.9    4.8016578    1.9976346   -2.1673725    -89.61965     87.36562   -4.1680582 
   61700   -1726350.9    4.8246623    1.9460526   -2.1816991   -89.513955     87.39028   -4.1696807 
   61800   -1726350.9    4.8506661     1.895169   -2.1957431   -89.405136    87.416822   -4.1710794 
   61900   -1726350.9     4.874201    1.8454242   -2.2099334   -89.303919    87.443131   -4.1730391 
   62000   -1726350.9     4.900465    1.7915807   -2.2248621   -89.197715    87.468413   -4.1764541 
   62100   -1726350.9    4.9239578    1.7361513   -2.2396906   -89.093918     87.49486   -4.1794202 
   62200   -1726350.9    4.9457774    1.6804756   -2.2561171   -88.990576    87.522764   -4.1816671 
   62300   -1726350.9    4.9703094    1.6196547   -2.2760276   -88.883162    87.550541   -4.1849484 
   62400   -1726350.9    4.9918085    1.5576273   -2.2968507   -88.782036    87.577321   -4.1863007 
   62500     -1726351    5.0148816    1.4917595   -2.3209818   -88.678804    87.604931   -4.1907237 
   62600     -1726351    5.0390311    1.4190067    -2.346171   -88.573464    87.636168   -4.1940289 
   62700     -1726351    5.0614809    1.3506986   -2.3731301   -88.475872    87.664065   -4.1954024 
   62800     -1726351    5.0849908    1.2758189   -2.4084033   -88.374706    87.692772    -4.197702 
   62900     -1726351    5.1096646    1.1930128   -2.4460647   -88.272319    87.723938   -4.1997521 
   63000     -1726351    5.1336302    1.1146009   -2.4851014   -88.179449    87.754935   -4.1993865 
   63100     -1726351    5.1580068     1.032625    -2.526694   -88.084922    87.785579   -4.1977267 
   63200     -1726351    5.1791179   0.94584237   -2.5820662   -87.988134    87.816354   -4.1944813 
   63300   -1726351.1    5.2018173    0.8622797   -2.6280145   -87.896143     87.84305   -4.1907647 
   63400   -1726351.1    5.2223144   0.78543556   -2.6737293   -87.803895    87.869117   -4.1860721 
   63500   -1726351.1    5.2427302    0.7045002   -2.7175555   -87.705096    87.892461   -4.1826093 
   63600   -1726351.1    5.2664041   0.63279636   -2.7547967   -87.612888    87.914407   -4.1776856 
   63700   -1726351.1    5.2924734   0.56607495   -2.7875546   -87.517786    87.937471     -4.17204 
   63800   -1726351.1    5.3184841   0.49721588   -2.8197136    -87.41835    87.962747   -4.1666022 
   63900   -1726351.1    5.3427635   0.43751722     -2.84518   -87.324703    87.986604   -4.1601161 
   64000   -1726351.1    5.3650127   0.37661155    -2.872382   -87.225576    88.012143   -4.1543604 
   64100   -1726351.1    5.3861265   0.31877891   -2.8960664   -87.126709    88.036886   -4.1496579 
   64200   -1726351.1    5.4071072   0.26323308   -2.9173736   -87.029691    88.061799   -4.1447749 
   64300   -1726351.2     5.430723   0.20082361   -2.9379112   -86.928103    88.085734   -4.1393619 
   64400   -1726351.2    5.4523732   0.14556145   -2.9584511   -86.832449    88.110203   -4.1345447 
   64500   -1726351.2    5.4738902  0.086373755   -2.9788887   -86.729417    88.135348   -4.1304952 
   64600   -1726351.2    5.4931127  0.030683023   -2.9969446   -86.632885    88.159474   -4.1260009 
   64700   -1726351.2    5.5167665 -0.028183409   -3.0177838   -86.529645    88.182346    -4.120043 
   64800   -1726351.2    5.5390392 -0.082918247   -3.0375694   -86.431926    88.203651   -4.1149545 
   64900   -1726351.2    5.5608156  -0.14183136   -3.0552116   -86.329809    88.226756   -4.1096933 
   65000   -1726351.2    5.5799415  -0.19923671   -3.0731543    -86.23201    88.248997   -4.1048514 
   65100   -1726351.2    5.6019328  -0.26141297    -3.092933    -86.12881    88.272326    -4.101108 
   65200   -1726351.2    5.6246451  -0.31868959   -3.1103226   -86.029921    88.295664   -4.0973561 
   65300   -1726351.2    5.6438578  -0.37514705   -3.1273204   -85.930745     88.31954   -4.0933579 
   65400   -1726351.2    5.6633819  -0.43502142   -3.1453817    -85.83141    88.343637   -4.0892022 
   65500   -1726351.2    5.6854417   -0.4933652   -3.1614917   -85.731325    88.367612   -4.0864802 
   65600   -1726351.2    5.7083751  -0.55134498   -3.1769885   -85.631556    88.391378   -4.0832996 
   65700   -1726351.2    5.7310916  -0.61186446   -3.1954481    -85.53409    88.415317   -4.0803735 
   65800   -1726351.2    5.7529785  -0.66891189    -3.212253   -85.433774    88.440377   -4.0772052 
   65900   -1726351.2    5.7723004   -0.7244152   -3.2266163   -85.337819    88.464566   -4.0745549 
   66000   -1726351.2    5.7952089  -0.77851772    -3.240953   -85.238178    88.488827   -4.0723635 
   66100   -1726351.2    5.8157183   -0.8309463   -3.2551225   -85.144072    88.512336   -4.0718139 
   66200   -1726351.3    5.8375867  -0.88550505   -3.2696764   -85.047392    88.535675   -4.0701457 
   66300   -1726351.3    5.8602228  -0.93751072   -3.2864649   -84.949283    88.558819   -4.0696586 
   66400   -1726351.3    5.8814955  -0.98809783   -3.3028916   -84.854725    88.581152    -4.069926 
   66500   -1726351.3    5.9026277   -1.0383579   -3.3207931   -84.755089    88.604349   -4.0704816 
   66600   -1726351.3    5.9225583   -1.0873176   -3.3353775   -84.660121    88.626094   -4.0688528 
   66700   -1726351.3    5.9441084    -1.137453   -3.3505183    -84.56142    88.648174   -4.0691349 
   66800   -1726351.3    5.9644062    -1.185845   -3.3652177   -84.467159     88.66941   -4.0687474 
   66900   -1726351.3    5.9871649   -1.2333013   -3.3800321    -84.37009    88.692874   -4.0685357 
   67000   -1726351.3    6.0082429    -1.279608   -3.3955956   -84.274537    88.714649   -4.0688544 
   67100   -1726351.3    6.0333936   -1.3267302   -3.4094291     -84.1748    88.736562     -4.06964 
   67200   -1726351.3    6.0557157   -1.3693544   -3.4215812   -84.081624    88.757105   -4.0706719 
   67300   -1726351.3    6.0786721   -1.4159545   -3.4355834   -83.982272    88.777181   -4.0722331 
   67400   -1726351.3     6.101862   -1.4583865   -3.4496169   -83.888183    88.795712   -4.0738891 
   67500   -1726351.3    6.1254667   -1.5028773   -3.4628225   -83.788981    88.815481   -4.0758493 
   67600   -1726351.3    6.1484661   -1.5438883   -3.4752426   -83.697707    88.836138   -4.0780926 
   67700   -1726351.3    6.1727892   -1.5880234   -3.4881862   -83.599621     88.85696   -4.0793026 
   67800   -1726351.3    6.1959162   -1.6288569   -3.5005086    -83.50589    88.875613   -4.0812116 
   67900   -1726351.3     6.219676   -1.6676809   -3.5106415    -83.40959    88.897116   -4.0835496 
   68000   -1726351.3    6.2441322   -1.7064024   -3.5212142   -83.315192    88.915777   -4.0846525 
   68100   -1726351.3    6.2656437   -1.7481912   -3.5329503   -83.218052    88.935539   -4.0861507 
   68200   -1726351.3    6.2887439   -1.7850313   -3.5441311   -83.123607     88.95446   -4.0877197 
   68300   -1726351.3    6.3116134   -1.8252445   -3.5557616   -83.028715     88.97338   -4.0891706 
   68400   -1726351.3    6.3368616   -1.8649363   -3.5665679   -82.933381    88.992841   -4.0915318 
   68500   -1726351.3    6.3599511   -1.9041693   -3.5775555   -82.837734    89.010603   -4.0922648 
   68600   -1726351.3     6.385191   -1.9390896    -3.587147   -82.744102    89.027687   -4.0947854 
   68700   -1726351.3    6.4078106   -1.9768181   -3.5971113   -82.649777    89.045467   -4.0968513 
   68800   -1726351.4    6.4318414    -2.015254   -3.6071043   -82.555697    89.063446   -4.0987594 
   68900   -1726351.4    6.4541475    -2.051596   -3.6167421   -82.461196     89.08079   -4.0999834 
   69000   -1726351.4    6.4753508   -2.0890785   -3.6287926   -82.365868    89.098675   -4.1011416 
   69100   -1726351.4    6.4961141   -2.1245492   -3.6412502   -82.273065    89.116974   -4.1034729 
   69200   -1726351.4    6.5144693   -2.1679087   -3.6547722   -82.176303    89.134612   -4.1056386 
   69300   -1726351.4    6.5368212   -2.2047924   -3.6661193   -82.083032    89.151012   -4.1075543 
   69400   -1726351.4    6.5598338   -2.2450923   -3.6780926   -81.986092    89.167526   -4.1109625 
   69500   -1726351.4     6.576973   -2.2836821   -3.6928407   -81.893892    89.184735   -4.1139528 
   69600   -1726351.4     6.596803   -2.3264563   -3.7098145   -81.796652     89.20321   -4.1176277 
   69700   -1726351.4    6.6168814   -2.3700211    -3.731163   -81.703535    89.220728   -4.1222245 
   69800   -1726351.4    6.6383564   -2.4222485   -3.7551148   -81.609174    89.238097   -4.1286361 
   69900   -1726351.4     6.659174    -2.492054   -3.7900313   -81.514422    89.257959   -4.1362988 
   70000   -1726351.4    6.6778118   -2.5779802    -3.833309   -81.424627    89.276793   -4.1424699 
   70100   -1726351.5    6.7053665   -2.6996689   -3.8955691   -81.333611    89.299379   -4.1484352 
   70200   -1726351.5    6.7372359    -2.843534   -3.9741348   -81.252094    89.332187   -4.1539406 
   70300   -1726351.7    6.7670713   -2.9770995   -4.0496769   -81.176572    89.363033   -4.1527263 
   70400   -1726351.7    6.7920855   -3.0631987   -4.0824937   -81.103532    89.380308   -4.1414212 
   70500   -1726351.7    6.8104988    -3.105788   -4.0853074   -81.027547    89.392041   -4.1278544 
   70600   -1726351.8    6.8308888   -3.1397361   -4.0756426   -80.943979    89.402842   -4.1120074 
   70700   -1726351.8    6.8490767   -3.1683014   -4.0644236    -80.86267    89.413646   -4.0993163 
   70800   -1726351.8    6.8666894    -3.199297   -4.0582946   -80.773507    89.424528   -4.0880642 
   70900   -1726351.8    6.8852139   -3.2284883   -4.0525265   -80.684303    89.435887   -4.0790419 
   71000   -1726351.8    6.9007435   -3.2528629   -4.0450284   -80.595745    89.444736   -4.0726347 
   71100   -1726351.8    6.9167104    -3.278417   -4.0421971   -80.508498    89.454252   -4.0669984 
   71200   -1726351.8    6.9346053   -3.3013789   -4.0382721   -80.416691    89.463251   -4.0623023 
   71300   -1726351.8    6.9511809   -3.3228389   -4.0366154   -80.326346    89.472629   -4.0580415 
   71400   -1726351.8    6.9694086   -3.3443276   -4.0332904   -80.238408    89.481039   -4.0551312 
   71500   -1726351.8    6.9898177   -3.3633433   -4.0301519   -80.151002    89.490272    -4.051471 
   71600   -1726351.8     7.005278   -3.3847486   -4.0300715   -80.060172    89.500405   -4.0492836 
   71700   -1726351.8    7.0231145   -3.4053767   -4.0291757   -79.966329    89.508482   -4.0460506 
   71800   -1726351.8    7.0401855   -3.4263582    -4.027678   -79.878183    89.516541   -4.0446162 
   71900   -1726351.8    7.0602483   -3.4453154   -4.0255466   -79.789007    89.525066   -4.0419666 
   72000   -1726351.8    7.0786642   -3.4663653   -4.0241798   -79.697678    89.532115   -4.0404136 
   72100   -1726351.8    7.0958783   -3.4885019   -4.0250639   -79.608526    89.539442   -4.0383285 
   72200   -1726351.8    7.1137317   -3.5105058   -4.0235693   -79.521609    89.545279   -4.0362692 
   72300   -1726351.8    7.1301599   -3.5305048    -4.023112   -79.431418    89.551753   -4.0348922 
   72400   -1726351.8    7.1492575   -3.5515109   -4.0219089   -79.341905    89.559509   -4.0326536 
   72500   -1726351.8    7.1664579    -3.572098   -4.0229549   -79.254674    89.565049   -4.0305666 
   72600   -1726351.8    7.1881339   -3.5910982   -4.0218744   -79.164664    89.571567   -4.0303049 
   72700   -1726351.9    7.2061573   -3.6121892   -4.0214326     -79.0785    89.577842   -4.0290426 
   72800   -1726351.9    7.2238465   -3.6306012   -4.0195159   -78.990378    89.584101   -4.0277013 
   72900   -1726351.9     7.241498   -3.6533073   -4.0167924   -78.902496    89.589834   -4.0273032 
   73000   -1726351.9    7.2585756   -3.6720427   -4.0151543   -78.816231    89.595825    -4.026407 
   73100   -1726351.9    7.2759605   -3.6893846   -4.0122266   -78.726123    89.601378   -4.0248495 
   73200   -1726351.9    7.2919311   -3.7077022    -4.010578   -78.641392    89.605194   -4.0234633 
   73300   -1726351.9    7.3078206   -3.7267648   -4.0071995   -78.554114    89.612189    -4.021139 
   73400   -1726351.9    7.3253153   -3.7451326   -4.0024226   -78.463802     89.61684   -4.0182546 
   73500   -1726351.9     7.340697   -3.7633428   -3.9981436   -78.378201    89.620804   -4.0163488 
   73600   -1726351.9    7.3571765   -3.7815142   -3.9948413     -78.2938    89.624447   -4.0146884 
   73700   -1726351.9    7.3747958   -3.7998553   -3.9903846   -78.203338     89.62775   -4.0123891 
   73800   -1726351.9    7.3923525   -3.8184391   -3.9858852   -78.118602    89.630897   -4.0112011 
   73900   -1726351.9    7.4084865   -3.8385826   -3.9830217   -78.032063    89.633501   -4.0087422 
   74000   -1726351.9    7.4270572   -3.8578441   -3.9800206   -77.946178    89.636407   -4.0059529 
   74100   -1726351.9    7.4435891   -3.8749542   -3.9779923    -77.86521    89.636825   -4.0036144 
   74200   -1726351.9    7.4612698   -3.8920996   -3.9729456   -77.779005    89.638775   -4.0029403 
   74300   -1726351.9    7.4786487   -3.9112565   -3.9679475   -77.696421    89.640533   -3.9999234 
   74400   -1726351.9    7.4972771   -3.9304234   -3.9631856   -77.613477    89.641786   -3.9983879 
   74500   -1726351.9    7.5148015   -3.9508589   -3.9583923   -77.528827    89.644547   -3.9956912 
   74600   -1726351.9    7.5331032   -3.9669113   -3.9543807    -77.44905    89.645741   -3.9937704 
   74700   -1726351.9    7.5504898   -3.9888396   -3.9507881   -77.366825    89.645418   -3.9916902 
   74800   -1726351.9    7.5677365   -4.0069534   -3.9475118   -77.282018    89.647188   -3.9891213 
   74900   -1726351.9    7.5864802   -4.0265357    -3.943908   -77.202927     89.64831   -3.9868638 
   75000   -1726351.9     7.603361   -4.0448026   -3.9410486   -77.121549    89.650049   -3.9840405 
   75100   -1726351.9     7.619501   -4.0665382   -3.9386068   -77.037294    89.650383   -3.9817854 
   75200     -1726352    7.6367986   -4.0872356   -3.9373183     -76.9584    89.650086   -3.9768018 
   75300     -1726352    7.6546354   -4.1068566   -3.9372715   -76.878261    89.650944   -3.9707704 
   75400     -1726352    7.6727416   -4.1270643   -3.9375567   -76.797104    89.650957    -3.964432 
   75500     -1726352     7.688223   -4.1467933   -3.9369045   -76.715518    89.648759   -3.9551668 
   75600     -1726352     7.703087   -4.1652472   -3.9365893    -76.63869    89.645659   -3.9445393 
   75700     -1726352    7.7162635   -4.1862982   -3.9353955   -76.559949    89.642024   -3.9335821 
   75800     -1726352     7.734039   -4.1999501   -3.9332181    -76.47997    89.635469   -3.9211738 
   75900     -1726352    7.7510009   -4.2115595   -3.9292314   -76.396705    89.628742   -3.9073293 
   76000     -1726352     7.766403   -4.2259316   -3.9264409   -76.319653    89.621077   -3.8935991 
   76100     -1726352    7.7859908   -4.2300273   -3.9196128   -76.237825     89.61466   -3.8803465 
   76200     -1726352    7.8057229   -4.2326065   -3.9103603   -76.153046     89.60902   -3.8696007 
   76300     -1726352    7.8246613   -4.2374166   -3.8991806   -76.074776    89.605102   -3.8625588 
   76400     -1726352    7.8431793   -4.2429414      -3.8861   -75.995082    89.600138   -3.8575569 
   76500   -1726352.1    7.8643478   -4.2459522   -3.8763673   -75.910918    89.596458   -3.8562533 
   76600   -1726352.1    7.8797952   -4.2499241    -3.868616   -75.831713    89.595616   -3.8545212 
   76700   -1726352.1    7.8952134   -4.2559763    -3.861318   -75.747747      89.5968   -3.8545337 
   76800   -1726352.1    7.9092061    -4.267074   -3.8576485   -75.664517    89.597119   -3.8551775 
   76900   -1726352.1    7.9244515   -4.2778569   -3.8546982   -75.583788    89.596972   -3.8559861 
   77000   -1726352.1    7.9363458   -4.2927785   -3.8525368   -75.504539    89.598917   -3.8551411 
   77100   -1726352.1    7.9514034   -4.3064763   -3.8527407   -75.420813    89.599548    -3.854263 
   77200   -1726352.1    7.9652113   -4.3227725    -3.854065   -75.341076    89.601861    -3.854691 
   77300   -1726352.1    7.9764013   -4.3386322   -3.8578141   -75.264179    89.602612   -3.8535603 
   77400   -1726352.1     7.989511   -4.3540402   -3.8616525   -75.186927    89.604755   -3.8517493 
   77500   -1726352.1    8.0030804   -4.3715093   -3.8666801   -75.108738    89.605292   -3.8504024 
   77600   -1726352.1    8.0171597   -4.3895761   -3.8713235   -75.028719    89.606881   -3.8487214 
   77700   -1726352.1    8.0311487   -4.4031652   -3.8756731   -74.950506    89.608244   -3.8466877 
   77800   -1726352.1    8.0426594   -4.4173957    -3.880749   -74.874398    89.609923   -3.8429293 
   77900   -1726352.1    8.0557915   -4.4319435   -3.8848379   -74.796369     89.61226   -3.8409503 
   78000   -1726352.1    8.0677742   -4.4481047   -3.8901812   -74.717328    89.612671    -3.839243 
   78100   -1726352.1    8.0802664   -4.4637853   -3.8969834   -74.641887    89.614279   -3.8363825 
[...]
  190100   -1726353.8    6.1747344   -4.8001041   -3.2796651   -28.775847    65.916955   -2.3811884 
  190200   -1726353.8    6.1701129   -4.7967791   -3.2774184    -28.75848    65.893606   -2.3796546 
  190300   -1726353.8    6.1657737   -4.7928346   -3.2751327   -28.740748     65.87022   -2.3780948 
  190400   -1726353.8    6.1611565   -4.7894339   -3.2727947   -28.723224    65.846665   -2.3765159 
  190500   -1726353.8    6.1564133   -4.7867417     -3.27049   -28.705542    65.823197   -2.3748803 
  190600   -1726353.8    6.1523638   -4.7829768   -3.2688015   -28.688382    65.800107   -2.3735469 
  190700   -1726353.8    6.1472556   -4.7802436   -3.2667304   -28.671294    65.776315   -2.3720909 
  190800   -1726353.8    6.1426335    -4.777564   -3.2646474   -28.654847    65.753176   -2.3702222 
  190900   -1726353.8    6.1376614   -4.7743709   -3.2624713   -28.637837    65.730101   -2.3686105 
  191000   -1726353.8    6.1331592   -4.7718491   -3.2604559   -28.620449    65.707033   -2.3669192 
  191100   -1726353.8    6.1280342   -4.7694528   -3.2582542   -28.603304    65.683697   -2.3653399 
  191200   -1726353.8    6.1231223    -4.766087   -3.2559744   -28.586269    65.660437   -2.3637448 
  191300   -1726353.8      6.11822    -4.762659   -3.2536579   -28.569079    65.636974   -2.3621101 
  191400   -1726353.8    6.1128024   -4.7592678   -3.2515266   -28.551658    65.613824   -2.3610575 
  191500   -1726353.8    6.1080446   -4.7557948   -3.2491801   -28.534394    65.590526   -2.3596539 
  191600   -1726353.8    6.1032841   -4.7523193   -3.2468003   -28.517035    65.567049   -2.3581949 
  191700   -1726353.8    6.0985687    -4.748857   -3.2444435   -28.499832    65.543747   -2.3567072 
  191800   -1726353.8    6.0936974   -4.7454552   -3.2424521   -28.482691    65.520097   -2.3554606 
  191900   -1726353.8    6.0889395   -4.7418691   -3.2399376   -28.465312    65.496633   -2.3538639 
  192000   -1726353.8    6.0842148   -4.7382895    -3.237474   -28.448116    65.473334   -2.3522712 
  192100   -1726353.8    6.0795817   -4.7353552    -3.235319   -28.430641     65.45027   -2.3511509 
  192200   -1726353.8     6.074732   -4.7313605   -3.2324899   -28.413267    65.427354   -2.3494892 
  192300   -1726353.8    6.0700087   -4.7280262   -3.2299816   -28.396855    65.404004   -2.3477452 
  192400   -1726353.8    6.0645915   -4.7244974   -3.2279626     -28.3803    65.380768   -2.3460237 
  192500   -1726353.8    6.0598309   -4.7209965   -3.2248834    -28.36352    65.357815   -2.3446423 
  192600   -1726353.8    6.0551258   -4.7174551   -3.2224257   -28.346693    65.334595   -2.3430553 
  192700   -1726353.8     6.050369   -4.7138868   -3.2199335    -28.32973    65.311163   -2.3414155 
  192800   -1726353.8    6.0456366    -4.710316   -3.2174596   -28.312877    65.287867   -2.3397657 
  192900   -1726353.8    6.0407081   -4.7069348   -3.2154438   -28.296214    65.264973   -2.3377666 
  193000   -1726353.8    6.0365473   -4.7030922   -3.2127827   -28.279663    65.241479   -2.3359417 
  193100   -1726353.8    6.0315122   -4.6994763   -3.2094977   -28.263272    65.218656   -2.3344358 
  193200   -1726353.8    6.0265722   -4.6955703    -3.207971   -28.246653    65.195486    -2.333195 
  193300   -1726353.8    6.0217443   -4.6916565   -3.2057013   -28.230022    65.172246   -2.3316766 
  193400   -1726353.8    6.0174619   -4.6874957   -3.2034015   -28.213094    65.149131   -2.3300517 
  193500   -1726353.8    6.0125305   -4.6836505   -3.2011144   -28.196414    65.125781   -2.3284855 
  193600   -1726353.8    6.0076677   -4.6798362   -3.1988121   -28.179806    65.102569   -2.3268838 
  193700   -1726353.8      6.00281   -4.6759935   -3.1964711   -28.163161    65.079322   -2.3252534 
  193800   -1726353.8    5.9977192   -4.6727819   -3.1942858    -28.14699     65.05562   -2.3238544 
  193900   -1726353.8    5.9931794   -4.6690531   -3.1914966   -28.130682    65.032484   -2.3225774 
  194000   -1726353.8     5.988388   -4.6649967   -3.1896882   -28.114372    65.009489   -2.3211104 
  194100   -1726353.8    5.9836348   -4.6600779   -3.1870433   -28.097717    64.986983    -2.319441 
  194200   -1726353.8    5.9789254   -4.6563559   -3.1846932    -28.08115    64.964075   -2.3178072 
  194300   -1726353.8    5.9738752   -4.6527597   -3.1829096   -28.064677     64.94065   -2.3164847 
  194400   -1726353.8    5.9691046   -4.6490931   -3.1805309   -28.048228    64.917507   -2.3147907 
  194500   -1726353.8    5.9651261   -4.6453875   -3.1781283   -28.031799     64.89427   -2.3131423 
  194600   -1726353.8    5.9603802   -4.6417269    -3.175726   -28.015419    64.870992   -2.3115373 
  194700   -1726353.8    5.9556177   -4.6380436    -3.173334   -27.999044    64.847835   -2.3099009 
  194800   -1726353.8    5.9500498   -4.6347603   -3.1709303   -27.983078    64.824457   -2.3083412 
  194900   -1726353.8    5.9447291   -4.6319432   -3.1685345   -27.967265    64.801214   -2.3066933 
  195000   -1726353.8     5.939895   -4.6283164   -3.1656449   -27.951106    64.778072   -2.3052563 
  195100   -1726353.8    5.9357618   -4.6240682   -3.1632411   -27.935026    64.755031   -2.3035698 
  195200   -1726353.8    5.9305715   -4.6201457   -3.1609653   -27.918952    64.731996   -2.3019607 
  195300   -1726353.8     5.925824   -4.6163953    -3.158635   -27.902448    64.708762   -2.3002917 
  195400   -1726353.8    5.9209932   -4.6127057    -3.156252   -27.885971     64.68555    -2.298607 
  195500   -1726353.8    5.9161324   -4.6090138   -3.1538455   -27.869524    64.662371   -2.2969179 
  195600   -1726353.8    5.9116357   -4.6052576   -3.1507905   -27.852854     64.63913   -2.2948396 
  195700   -1726353.8    5.9068915   -4.6015693   -3.1483071   -27.836322    64.615991   -2.2931522 
  195800   -1726353.8    5.9020889     -4.59788   -3.1458246   -27.819749    64.592763   -2.2914481 
  195900   -1726353.8     5.897243   -4.5942003   -3.1433448   -27.803142    64.569466   -2.2897335 
  196000   -1726353.8    5.8923959   -4.5905226   -3.1408887   -27.786625    64.546287   -2.2880197 
  196100   -1726353.9    5.8875101   -4.5868284   -3.1384136   -27.770034     64.52299   -2.2862962 
  196200   -1726353.9    5.8826119   -4.5831423   -3.1359439   -27.753457    64.499704   -2.2845706 
  196300   -1726353.9    5.8770337   -4.5796539   -3.1334731   -27.736625    64.476487   -2.2828596 
  196400   -1726353.9     5.871945   -4.5758163   -3.1310757   -27.720162     64.45386    -2.280514 
  196500   -1726353.9    5.8671235   -4.5723574   -3.1288823   -27.703703    64.430757   -2.2787475 
  196600   -1726353.9    5.8623892   -4.5676671   -3.1270935   -27.687726    64.407871    -2.277409 
  196700   -1726353.9    5.8576195   -4.5641892      -3.1247   -27.671203    64.384632    -2.275742 
  196800   -1726353.9    5.8531533   -4.5600178   -3.1221362   -27.655181    64.361295   -2.2738789 
  196900   -1726353.9     5.847737   -4.5565403   -3.1198724   -27.639236    64.338311   -2.2718835 
  197000   -1726353.9    5.8428816   -4.5531468   -3.1173691   -27.623293     64.31588   -2.2701419 
  197100   -1726353.9     5.838061    -4.549735   -3.1149489   -27.607072    64.292945   -2.2684136 
  197200   -1726353.9    5.8331162   -4.5469927   -3.1124806   -27.591153    64.270166   -2.2666782 
  197300   -1726353.9    5.8284221   -4.5433735   -3.1092681   -27.574955    64.247388   -2.2651405 
  197400   -1726353.9    5.8236595   -4.5406129    -3.106833   -27.558763    64.224625   -2.2634228 
  197500   -1726353.9    5.8189304   -4.5368409   -3.1037953   -27.542444    64.201798   -2.2616696 
  197600   -1726353.9    5.8141229   -4.5332245   -3.1012908   -27.526143    64.178676   -2.2599405 
  197700   -1726353.9    5.8101733   -4.5296237   -3.0986937   -27.509759    64.155545   -2.2582618 
  197800   -1726353.9    5.8054791   -4.5269445   -3.0962515   -27.493483    64.132816   -2.2565875 
  197900   -1726353.9    5.8002589   -4.5242131   -3.0942113   -27.477385     64.11009    -2.255276 
  198000   -1726353.9    5.7954193   -4.5207616   -3.0918664   -27.461003    64.087082   -2.2536707 
  198100   -1726353.9    5.7911153   -4.5171081   -3.0893936   -27.444918    64.063826   -2.2518547 
  198200   -1726353.9    5.7855311   -4.5130506   -3.0869014   -27.428428    64.040993   -2.2500713 
  198300   -1726353.9    5.7806466   -4.5098655   -3.0848975   -27.412305    64.017485   -2.2486203 
  198400   -1726353.9    5.7764375   -4.5063848   -3.0822736   -27.395715    63.994278   -2.2473436 
  198500   -1726353.9    5.7713818    -4.503957    -3.080338   -27.379638    63.971617   -2.2459016 
  198600   -1726353.9    5.7664852   -4.5004547   -3.0779505   -27.363206    63.948511   -2.2442947 
  198700   -1726353.9    5.7616053   -4.4969122   -3.0755453   -27.346948    63.925542   -2.2426541 
  198800   -1726353.9    5.7560525   -4.4929596   -3.0729057   -27.331081    63.902856   -2.2408541 
  198900   -1726353.9    5.7503769   -4.4896578   -3.0705339   -27.314452    63.879947   -2.2393857 
  199000   -1726353.9    5.7448929   -4.4862566   -3.0679952    -27.29846    63.856967   -2.2379408 
  199100   -1726353.9     5.740227   -4.4825653   -3.0653517   -27.282012    63.833982   -2.2364754 
  199200   -1726353.9    5.7352463   -4.4794957   -3.0638543   -27.265891    63.811734   -2.2346192 
  199300   -1726353.9    5.7307373   -4.4753388   -3.0613659   -27.249765    63.788722   -2.2331948 
  199400   -1726353.9    5.7254829   -4.4720789   -3.0588806   -27.233192    63.765806   -2.2317617 
  199500   -1726353.9    5.7207614   -4.4686372   -3.0563925   -27.216882    63.742749   -2.2303358 
  199600   -1726353.9    5.7160131   -4.4651661   -3.0538744   -27.200491    63.719482   -2.2288599 
  199700   -1726353.9    5.7113051   -4.4617102   -3.0513932   -27.184279    63.696424   -2.2273693 
  199800   -1726353.9     5.706598   -4.4582267   -3.0488975   -27.168081    63.673343   -2.2258608 
  199900   -1726353.9    5.7018924   -4.4556732   -3.0463375   -27.151792    63.650084   -2.2243101 
  200000   -1726353.9    5.6971902   -4.4521148   -3.0437671   -27.135501     63.62678   -2.2227445 
  200100   -1726353.9    5.6919752   -4.4482696   -3.0410086   -27.119387    63.603729   -2.2211134 
  200200   -1726353.9    5.6878859   -4.4438362   -3.0378464   -27.103419    63.580845   -2.2192361 
  200300   -1726353.9    5.6835804   -4.4395108   -3.0352463   -27.087494      63.5576   -2.2176641 
  200400   -1726353.9    5.6787544   -4.4363355   -3.0337132   -27.071637    63.534909   -2.2155098 
  200500   -1726353.9    5.6746494   -4.4330135   -3.0317436   -27.056622    63.511754   -2.2143718 
  200600   -1726353.9     5.669642   -4.4307953   -3.0305086   -27.041084    63.489505   -2.2136111 
  200700   -1726353.9    5.6654588   -4.4280309   -3.0284244   -27.025296    63.466549   -2.2126216 
  200800   -1726353.9    5.6613472   -4.4251725   -3.0262597   -27.009472    63.443388   -2.2115878 
  200900   -1726353.9    5.6582898   -4.4227263   -3.0242255   -26.993903    63.420403   -2.2105423 
  201000   -1726353.9    5.6541666   -4.4202709   -3.0221168   -26.978691    63.397719   -2.2093357 
  201100   -1726353.9     5.650386    -4.417648   -3.0201092   -26.963118    63.374744   -2.2083528 
  201200   -1726353.9    5.6465023   -4.4150702   -3.0181924   -26.947476    63.351647   -2.2073486 
  201300   -1726353.9    5.6431073   -4.4127282   -3.0164691   -26.932246    63.328861   -2.2065908 
  201400   -1726353.9    5.6391384    -4.410388   -3.0148694   -26.916835     63.30601   -2.2055385 
  201500   -1726353.9    5.6344244   -4.4089033   -3.0133274   -26.901277    63.282963    -2.204416 
  201600   -1726353.9    5.6303124   -4.4065169   -3.0122702   -26.885829    63.260151   -2.2028779 
  201700   -1726353.9     5.626754   -4.4038812   -3.0101813   -26.870615    63.237249   -2.2013996 
  201800   -1726353.9    5.6221057   -4.4013399   -3.0084731    -26.85569    63.214447   -2.2002618 
  201900   -1726353.9    5.6176283   -4.3990837   -3.0068729   -26.840839    63.191141   -2.1993543 
  202000   -1726353.9    5.6135692   -4.3961825   -3.0062808   -26.825962    63.168529   -2.1981516 
  202100   -1726353.9    5.6098309   -4.3939556    -3.004855   -26.810936    63.146033   -2.1966718 
  202200   -1726353.9    5.6053604   -4.3921626   -3.0029339    -26.79591    63.123189   -2.1952884 
  202300   -1726353.9    5.6016709   -4.3896285   -3.0013005   -26.780672    63.100315   -2.1940417 
  202400   -1726353.9     5.597985   -4.3869274   -2.9995975    -26.76537    63.077359   -2.1927983 
  202500   -1726353.9    5.5934083   -4.3843739   -2.9980422   -26.750651    63.054519   -2.1919574 
  202600   -1726353.9    5.5894731   -4.3813852   -2.9958329    -26.73555    63.032045    -2.190669 
  202700   -1726353.9    5.5854574   -4.3784132   -2.9941566   -26.720397    63.009282   -2.1895506 
  202800   -1726353.9    5.5813939   -4.3767348   -2.9928124   -26.704939    62.986792   -2.1885314 
  202900   -1726353.9    5.5782961    -4.374496   -2.9907492    -26.68999    62.964715   -2.1875109 
  203000   -1726353.9    5.5736469   -4.3718146   -2.9892043   -26.674645    62.942253   -2.1867881 
  203100   -1726353.9     5.569682   -4.3689926   -2.9874846    -26.65945    62.919596   -2.1856769 
  203200   -1726353.9     5.565123   -4.3661634   -2.9858993   -26.643981    62.896909   -2.1849229 
  203300   -1726353.9    5.5612557   -4.3640231   -2.9840106   -26.628834    62.874047   -2.1839965 
  203400   -1726353.9       5.5577     -4.36104   -2.9813425   -26.613607    62.851591   -2.1832186 
  203500   -1726353.9    5.5540121   -4.3596859    -2.979699   -26.598689    62.829612   -2.1821686 
  203600   -1726353.9    5.5503219   -4.3569508   -2.9777866   -26.583503     62.80692   -2.1811866 
  203700   -1726353.9    5.5465375   -4.3541153   -2.9758465   -26.568218    62.784031   -2.1801209 
  203800   -1726353.9    5.5427092   -4.3512525   -2.9739072   -26.552958    62.761162   -2.1790014 
  203900   -1726353.9    5.5392198   -4.3482179   -2.9717123   -26.538055    62.738249   -2.1775282 
  204000   -1726353.9    5.5353639   -4.3452465   -2.9698289   -26.522855    62.715463     -2.17631 
  204100   -1726353.9    5.5319831   -4.3429535   -2.9678795   -26.507907    62.692587   -2.1752128 
  204200   -1726353.9    5.5276867   -4.3402845   -2.9660694    -26.49253    62.670035   -2.1741838 
  204300   -1726353.9    5.5242705   -4.3369277   -2.9642048   -26.477862    62.647547   -2.1733632 
  204400   -1726353.9    5.5208927   -4.3332158   -2.9601904   -26.462816    62.625652   -2.1717517 
  204500   -1726353.9    5.5169835     -4.32995   -2.9586018   -26.447665    62.603128   -2.1707695 
  204600   -1726353.9    5.5135409   -4.3264588   -2.9562935   -26.432884    62.580066   -2.1691909 
  204700   -1726353.9     5.509689   -4.3232985   -2.9541931   -26.417905    62.557346   -2.1678568 
  204800   -1726353.9    5.5057874   -4.3201283   -2.9520947   -26.402952    62.534703   -2.1665069 
  204900   -1726353.9    5.5018437   -4.3177009   -2.9501784    -26.38815    62.512311   -2.1651311 
  205000   -1726353.9    5.4978872   -4.3145845   -2.9480467   -26.373109     62.48945   -2.1638085 
  205100   -1726353.9    5.4938908   -4.3114496   -2.9459179   -26.358072    62.466611   -2.1624619 
  205200   -1726353.9    5.4905639   -4.3081064   -2.9437612   -26.343177    62.443961   -2.1610968 
  205300   -1726353.9      5.48601   -4.3049366   -2.9419642   -26.328788    62.421731   -2.1599386 
  205400   -1726353.9    5.4818522   -4.3021464   -2.9403632   -26.313637    62.399366   -2.1590515 
  205500   -1726353.9    5.4773079   -4.2992674   -2.9381821   -26.298236    62.376547   -2.1577851 
  205600   -1726353.9     5.473343   -4.2962508   -2.9359871   -26.283258    62.353774   -2.1564923 
  205700   -1726353.9    5.4691033   -4.2935447   -2.9338481   -26.268702    62.331301   -2.1549752 
  205800   -1726353.9    5.4650178   -4.2897013   -2.9308837   -26.253748     62.30914    -2.153335 
  205900   -1726353.9    5.4607851   -4.2864689   -2.9286127   -26.238664    62.286332   -2.1519988 
  206000   -1726353.9    5.4565801   -4.2832352   -2.9263438   -26.223577    62.263486    -2.150658 
  206100   -1726353.9    5.4527928   -4.2793891   -2.9240571   -26.208733    62.240789   -2.1496221 
  206200   -1726353.9    5.4486947   -4.2761193    -2.921765   -26.193925    62.218094    -2.148202 
  206300   -1726353.9    5.4438758   -4.2730084   -2.9194273   -26.179403    62.195253   -2.1468231 
  206400   -1726353.9     5.439656    -4.269741   -2.9171157   -26.164465    62.172305   -2.1454412 
  206500   -1726353.9    5.4352029    -4.266633   -2.9153697   -26.149651    62.149693   -2.1436734 
  206600   -1726353.9     5.430996   -4.2638903   -2.9135466   -26.134786    62.127427   -2.1422687 
  206700   -1726353.9    5.4267704   -4.2608117   -2.9112949   -26.119831    62.104828   -2.1408463 
  206800   -1726353.9    5.4226217   -4.2576982   -2.9092856    -26.10494    62.082711   -2.1389344 
  206900   -1726353.9    5.4184502   -4.2542423   -2.9068463   -26.090595    62.060423   -2.1378867 
  207000   -1726353.9    5.4146449   -4.2510631   -2.9047021   -26.075721    62.037871   -2.1364289 
  207100   -1726353.9    5.4107113   -4.2478751   -2.9025655   -26.060821    62.015197   -2.1350031 
  207200   -1726353.9    5.4065467    -4.246449   -2.9014081   -26.045993    61.992414   -2.1336819 
  207300   -1726353.9    5.4025606    -4.243551   -2.8995411   -26.031291    61.969892   -2.1323768 
  207400   -1726353.9    5.3986269   -4.2405486   -2.8975948   -26.016634    61.947416   -2.1310207 
  207500   -1726353.9      5.39465   -4.2374871   -2.8955992   -26.001894    61.924801    -2.129635 
  207600   -1726353.9    5.3905191    -4.234463   -2.8942909    -25.98712    61.902269    -2.128021 
  207700   -1726353.9    5.3863992   -4.2313969    -2.892348   -25.972242    61.879538   -2.1266231 
  207800   -1726353.9     5.382317   -4.2283351   -2.8903655   -25.957501    61.856979   -2.1252097 
  207900   -1726353.9    5.3783317   -4.2248709   -2.8889038   -25.943054     61.83455   -2.1240483 
  208000   -1726353.9    5.3743566    -4.221673   -2.8861779   -25.928295     61.81214   -2.1227834 
  208100   -1726353.9     5.370272   -4.2184789    -2.884074   -25.914119    61.789435   -2.1213576 
  208200   -1726353.9    5.3661616   -4.2162798   -2.8820811   -25.899393    61.767063    -2.119953 
  208300   -1726353.9    5.3620534   -4.2132919   -2.8800239   -25.884677    61.744499   -2.1185694 
  208400   -1726353.9    5.3578949   -4.2102379    -2.877946   -25.869913    61.721812   -2.1171604 
  208500   -1726353.9    5.3536923   -4.2071395   -2.8758483   -25.855083     61.69899   -2.1157318 
  208600   -1726353.9     5.349469   -4.2040284   -2.8737409   -25.840242    61.676122   -2.1142934 
  208700   -1726353.9    5.3452468   -4.2022825   -2.8721919   -25.825512    61.653896   -2.1129403 
  208800   -1726353.9    5.3410987   -4.1996597   -2.8706521   -25.810794    61.631628    -2.111589 
  208900   -1726353.9    5.3363046   -4.1967655   -2.8685991   -25.795752     61.60878   -2.1101661 
  209000   -1726353.9    5.3323537   -4.1943822   -2.8663479   -25.781595    61.585708   -2.1085032 
  209100   -1726353.9      5.32817   -4.1914683   -2.8642602   -25.767088    61.562903   -2.1071172 
  209200   -1726353.9    5.3234047   -4.1886734   -2.8621574    -25.75227    61.540198   -2.1057206 
  209300   -1726353.9    5.3192174   -4.1856777    -2.860041   -25.737711     61.51735   -2.1043052 
  209400   -1726353.9    5.3150235    -4.182558   -2.8578852   -25.723056    61.494403   -2.1028853 
  209500   -1726353.9    5.3107815   -4.1802328     -2.85572   -25.708266     61.47139   -2.1014543 
  209600   -1726353.9     5.306789   -4.1781686   -2.8543006   -25.692784    61.449726   -2.1004562 
  209700   -1726353.9    5.3026798   -4.1754015    -2.852304   -25.678152    61.427317   -2.0991338 
  209800   -1726353.9    5.2985235    -4.172482   -2.8502536   -25.663468    61.404693     -2.09778 
