LAMMPS (22 Aug 2018)
Processor partition = 0
Reading data file ...
  orthogonal box = (0 0 0) to (170 170 379.205)
  1 by 1 by 1 MPI processor grid
  reading atoms ...
  443580 atoms
Reading potential file /home/yzhang951/Au_Al/Au_u3.eam with DATE: 2007-06-11
Reading NEB coordinate file(s) ...
WARNING: Using 'neigh_modify every 1 delay 0 check yes' setting during minimization (../min.cpp:168)
Neighbor list info ...
  update every 1 steps, delay 0 steps, check yes
  max neighbors/atom: 2000, page size: 100000
  master list distance cutoff = 7.55
  ghost atom cutoff = 7.55
  binsize = 3.775, bins = 46 46 101
  1 neighbor lists, perpetual/occasional/extra = 1 0 0
  (1) pair eam, perpetual
      attributes: half, newton on
      pair build: half/bin/atomonly/newton
      stencil: half/bin/3d/newton
      bin: standard
Setting up quickmin style minimization ...
  Unit style    : metal
  Current step  : 0
Per MPI rank memory allocation (min/avg/max) = 232.7 | 232.7 | 232.7 Mbytes
Step TotEng Pxx Pyy Pzz Pxy Pyz Pxz 
       0   -1726435.2   0.10220644  0.053049228  0.094336084 -0.015425631 -0.014556858 0.0036236821 
     100   -1726435.3 0.0098195828 -0.003450508  0.011217343 -0.017187739 -0.0042127402 -0.010744946 
     200   -1726435.3   0.00927932 -0.0029366278  0.014488868 -0.018838337 -0.0046059058 -0.010216585 
     300   -1726435.3  0.011307389 -0.0015146207  0.017184841 -0.019896295 -0.0052601374 -0.0096929148 
     400   -1726435.3  0.013310428 -4.5732446e-05  0.019349812 -0.020631438 -0.005753598 -0.0093583846 
     500   -1726435.3  0.015017889 0.0011755574  0.021130501 -0.021262394 -0.0061535653 -0.0091123156 
     600   -1726435.3  0.016480112 0.0021320703  0.022620159  -0.02186716 -0.0065107517 -0.0089177217 
     700   -1726435.3  0.017532492 0.0027263645  0.023666488 -0.022371679 -0.0067913468 -0.0087869096 
     800   -1726435.3  0.018401699 0.0031224983  0.024508591 -0.022858681 -0.0070498172 -0.008687217 
     900   -1726435.3   0.01911314  0.003348596   0.02517555 -0.023330677 -0.0072908756 -0.0086142832 
    1000   -1726435.3  0.019635426 0.0034302831   0.02564675 -0.023739854 -0.0074938116 -0.0085686989 
    1100   -1726435.3  0.020076896 0.0034171231  0.026027148 -0.024145982 -0.007690813 -0.0085384041 
    1200   -1726435.3  0.020437538  0.003325807   0.02632035 -0.024535531 -0.0078764471 -0.0085221688 
    1300   -1726435.3  0.020706667  0.003191671  0.026524855 -0.024872198 -0.008034713 -0.0085173621 
    1400   -1726435.3  0.020938365 0.0030150125  0.026687639 -0.025203321 -0.0081886485 -0.0085202141 
    1500   -1726435.3  0.021133429 0.0028089584  0.026812261 -0.025519442 -0.0083340786 -0.0085293093 
    1600   -1726435.3  0.021288575 0.0025979253  0.026901263  -0.02580042 -0.0084620205 -0.0085421393 
    1700   -1726435.3  0.021427831 0.0023649891  0.026971893  -0.02607881 -0.0085873969 -0.0085588356 
    1800   -1726435.3  0.021548589 0.0021233964  0.027024866  -0.02634303 -0.0087048653 -0.0085780252 
    1900   -1726435.3  0.021645375  0.001899198  0.027061101 -0.026571584 -0.0088050189 -0.0085970207 
    2000   -1726435.3  0.021735742 0.0016621152  0.027089447 -0.026799515 -0.008903258 -0.0086179833 
    2100   -1726435.3  0.021818087 0.0014201344  0.027110335 -0.027020144 -0.0089964544 -0.0086400313 
    2200   -1726435.3  0.021885675 0.0012011147  0.027123765  -0.02721092 -0.0090752311 -0.008660373 
    2300   -1726435.3  0.021948732 0.00097868491  0.027133184 -0.027397082 -0.0091501808 -0.0086812705 
    2400   -1726435.3  0.022008288 0.00075096841  0.027139216 -0.027580549 -0.0092218627 -0.0087027963 
    2500   -1726435.3  0.022057617 0.00054809308  0.027142053 -0.027738455 -0.0092815381 -0.0087220039 
    2600   -1726435.3  0.022104704 0.00034106075  0.027142876 -0.027894591 -0.0093384299 -0.0087415649 
    2700   -1726435.3  0.022149416 0.00013089766  0.027141884 -0.028048221 -0.0093920646 -0.0087613183 
    2800   -1726435.3  0.022187187 -5.8384955e-05  0.027139621 -0.028182593 -0.0094368138 -0.0087789715 
    2900   -1726435.3  0.022222118 -0.0002443812  0.027136305 -0.028311107 -0.0094774889 -0.0087961521 
    3000   -1726435.3  0.022255327 -0.00043259933  0.027131965 -0.028437721 -0.0095152975 -0.0088133354 
    3100   -1726435.3  0.022284442 -0.00060843213  0.027127101 -0.028552975 -0.0095475417 -0.0088291734 
    3200   -1726435.3  0.022310722 -0.00077750492  0.027121764 -0.028661117 -0.0095757174 -0.0088441821 
    3300   -1726435.3  0.022335794 -0.00094995916  0.027115704 -0.028768778 -0.0096015712 -0.008859244 
    3400   -1726435.3  0.022357436 -0.0011096728  0.027109575 -0.028866153 -0.0096228889 -0.0088729496 
    3500   -1726435.3  0.022376808 -0.0012632745  0.027103247 -0.028957734 -0.0096409877 -0.0088858924 
    3600   -1726435.3  0.022395089 -0.0014200238  0.027096373  -0.02904914 -0.0096570083 -0.0088988418 
    3700   -1726435.3  0.022410517 -0.001563935  0.027089705 -0.029131268 -0.0096695207 -0.0089104854 
    3800   -1726435.3   0.02242443 -0.0017058275  0.027082816 -0.029210597 -0.0096797866 -0.0089217221 
    3900   -1726435.3  0.022437203 -0.0018499659  0.027075503 -0.029289539 -0.0096880979 -0.008932875 
    4000   -1726435.3    0.0224476 -0.0019811978  0.027068573 -0.029359998 -0.0096937997 -0.0089427874 
    4100   -1726435.3  0.022456609 -0.0021097192  0.027061543  -0.02942772 -0.009697655 -0.0089522605 
    4200   -1726435.3  0.022464485 -0.0022394895    0.0270542 -0.029494839 -0.0096998081 -0.0089615787 
    4300   -1726435.3  0.022470832 -0.0023637204  0.027046938 -0.029557929 -0.0097002287 -0.0089702555 
    4400   -1726435.3  0.022475663 -0.0024796301  0.027039958 -0.029615789 -0.0096991733 -0.0089781265 
    4500   -1726435.3  0.022479435 -0.0025968146  0.027032695  -0.02967332 -0.0096966869 -0.0089858539 
    4600   -1726435.3  0.022482004 -0.002711846  0.027025359 -0.029728871 -0.0096928606 -0.0089932043 
    4700   -1726435.3  0.022483346 -0.0028188829  0.027018345 -0.029779762 -0.0096880705 -0.0089998258 
    4800   -1726435.3  0.022483641 -0.0029255112  0.027011169 -0.029829711 -0.0096821251 -0.0090062044 
    4900   -1726435.3  0.022482835 -0.0030328266  0.027003749 -0.029879248 -0.009674965 -0.0090123958 
    5000   -1726435.3  0.022481135 -0.0031289894  0.026996924 -0.029923029 -0.0096675521 -0.009017741 
    5100   -1726435.3  0.022478391 -0.0032275323  0.026989747 -0.029967315 -0.0096589863 -0.0090230116 
    5200   -1726435.3  0.022474578 -0.0033263361  0.026982356 -0.030011149 -0.009649421 -0.0090280774 
    5300   -1726435.3  0.022470075 -0.0034174532  0.026975355 -0.030051083 -0.0096397414 -0.009032547 
    5400   -1726435.3  0.022464748 -0.0035060808  0.026968366 -0.030089492 -0.0096295451 -0.0090367011 
    5500   -1726435.3  0.022458236 -0.0035974559  0.026960962  -0.03012866 -0.0096182365 -0.0090407765 
    5600   -1726435.3  0.022451438 -0.0036798044  0.026954105 -0.030163597 -0.0096073619 -0.0090442619 
    5700   -1726435.3  0.022443541 -0.0037639761  0.026946906 -0.030198969 -0.0095955878 -0.0090476339 
    5800   -1726435.3  0.022434783 -0.0038468906   0.02693961 -0.030233492 -0.0095833495  -0.00905076 
    5900   -1726435.3  0.022425715 -0.0039241121  0.026932623 -0.030265373 -0.0095713904 -0.0090534904 
    6000   -1726435.3  0.022415585 -0.0040023889  0.026925338 -0.030297435 -0.009558727 -0.0090560734 
    6100   -1726435.3  0.022404431 -0.0040809417  0.026917807 -0.030329367 -0.0095454836 -0.0090584717 
    6200   -1726435.3  0.022393276 -0.0041530798  0.026910685  -0.03035849 -0.0095328602 -0.0090604969 
    6300   -1726435.3  0.022381397 -0.004224153  0.026903461 -0.030387005 -0.0095200022 -0.0090623204 
    6400   -1726435.3  0.022368506 -0.0042957294  0.026895965 -0.030415558 -0.0095066424 -0.0090639786 
    6500   -1726435.3  0.022355004 -0.0043655125   0.02688843 -0.030443246 -0.0094932324 -0.0090654172 
    6600   -1726435.3  0.022341542 -0.0044306148  0.026881186 -0.030468958 -0.0094803896 -0.0090665953 
    6700   -1726435.3  0.022326755 -0.0044977282  0.026873488 -0.030495352 -0.0094668261 -0.0090676389 
    6800   -1726435.3  0.022311713 -0.0045619196  0.026865892 -0.030520502 -0.0094535565 -0.0090684694 
    6900   -1726435.3  0.022296479 -0.0046233013  0.026858403 -0.030544475 -0.0094406067 -0.0090691054 
    7000   -1726435.3  0.022279966 -0.0046862172  0.026850486 -0.030568978 -0.0094270797 -0.0090695919 
    7100   -1726435.3  0.022263118 -0.0047469997  0.026842591 -0.030592594 -0.0094137786 -0.0090698981 
    7200   -1726435.3  0.022246456 -0.0048041129   0.02683494 -0.030614743 -0.0094010817 -0.0090700347 
    7300   -1726435.3  0.022228587 -0.0048624191  0.026826885 -0.030637322 -0.0093879311 -0.0090700188 
    7400   -1726435.3  0.022209678 -0.0049211515  0.026818508 -0.030660041 -0.0093745029 -0.0090698396 
    7500   -1726435.3  0.022191613 -0.0049747083  0.026810626 -0.030680744 -0.0093621083 -0.0090695296 
    7600   -1726435.3  0.022172761 -0.005028202  0.026802512 -0.030701416 -0.009349595 -0.0090690764 
    7700   -1726435.3  0.022152696 -0.0050827002  0.026793984 -0.030722478 -0.0093367192 -0.0090684634 
    7800   -1726435.3  0.022132203  -0.00513601  0.026785375 -0.030743089 -0.0093240091 -0.0090677124 
    7900   -1726435.3   0.02211251 -0.0051852008  0.026777186 -0.030762121 -0.0093121881 -0.0090668831 
    8000   -1726435.3  0.022091546 -0.0052355669  0.026768546 -0.030781628 -0.0093000006 -0.0090658952 
    8100   -1726435.3  0.022069748 -0.0052859281  0.026759638 -0.030801159 -0.0092877378 -0.0090647638 
    8200   -1726435.3  0.022048776 -0.0053326081  0.026751131 -0.030819291 -0.0092763102 -0.0090635837 
    8300   -1726435.3  0.022026365 -0.0053807253  0.026742099 -0.030838017 -0.009264477 -0.0090622323 
    8400   -1726435.3  0.022002857 -0.0054293893  0.026732682 -0.030856996 -0.0092524616 -0.0090607229 
    8500   -1726435.3  0.021979602 -0.0054758475  0.026723415 -0.030875159 -0.0092409536 -0.0090591454 
    8600   -1726435.3  0.021957197 -0.0055191424  0.026714529 -0.030892128 -0.0092302026 -0.0090575524 
    8700   -1726435.3  0.021933787 -0.0055629542  0.026705279 -0.030909347 -0.0092193034 -0.0090558176 
    8800   -1726435.3  0.021909106  -0.00560768  0.026695562 -0.030926977 -0.0092081626 -0.0090539167 
    8900   -1726435.3  0.021884217 -0.0056513603  0.026685793  -0.03094425 -0.0091972747 -0.0090519312 
    9000   -1726435.3  0.021860514 -0.0056917246  0.026676512 -0.030960265 -0.0091872119 -0.0090499807 
    9100   -1726435.3  0.021835323 -0.0057333871   0.02666667  -0.03097685 -0.0091768294 -0.009047849 
    9200   -1726435.3  0.021809751 -0.0057744613  0.026656696  -0.03099326 -0.0091666027 -0.0090456277 
    9300   -1726435.3  0.021784734 -0.0058135286  0.026646953 -0.031008925 -0.0091568885 -0.0090434025 
    9400   -1726435.3  0.021757955 -0.0058542021  0.026636534 -0.031025297 -0.0091467932 -0.0090409676 
    9500   -1726435.3  0.021732477 -0.0058918658  0.026626628 -0.031040516 -0.0091374659 -0.0090386037 
    9600   -1726435.3  0.021705909 -0.005930129  0.026616304 -0.031056039 -0.0091280147 -0.0090360928 
    9700   -1726435.3  0.021677795 -0.0059695615  0.026605382 -0.031072102 -0.0091183048 -0.0090333882 
    9800   -1726435.3  0.021651411 -0.0060056315  0.026595131 -0.031086857 -0.0091094535 -0.0090308087 
    9900   -1726435.3  0.021624528 -0.0060415051  0.026584685 -0.031101592 -0.0091006826 -0.0090281417 
   10000   -1726435.3  0.021596381 -0.0060781667  0.026573742 -0.031116715 -0.0090917556 -0.0090253101 
   10100   -1726435.3   0.02156807 -0.006114163  0.026562728 -0.031131628 -0.0090830299 -0.0090224243 
   10200   -1726435.3  0.021540677 -0.006148198  0.026552062 -0.031145789 -0.009074818 -0.009019598 
   10300   -1726435.3  0.021511464 -0.0061836761  0.026540677 -0.031160614 -0.0090663007 -0.0090165495 
   10400   -1726435.3  0.021483527 -0.0062168546  0.026529777 -0.031174539 -0.0090583775 -0.009013603 
   10500   -1726435.3  0.021454472 -0.0062506229  0.026518425 -0.031188773 -0.0090503573 -0.0090105078 
   10600   -1726435.3  0.021425341 -0.0062837574  0.026507029   -0.0312028 -0.0090425332 -0.0090073753 
   10700   -1726435.3   0.02139629 -0.0063161181  0.026495646 -0.031216561 -0.0090349372 -0.0090042235 
   10800   -1726435.3    0.0213659 -0.0063492732  0.026483719  -0.03123072 -0.0090272035 -0.0090008985 
   10900   -1726435.3   0.02133708 -0.0063800871  0.026472387 -0.031243938 -0.0090200616 -0.0089977204 
   11000   -1726435.3  0.021306423 -0.0064122232  0.026460312 -0.031257782 -0.0090126622 -0.0089943146 
   11100   -1726435.3  0.021276379 -0.0064431043  0.026448455 -0.031271143 -0.0090056003 -0.008990953 
   11200   -1726435.3  0.021246355 -0.0064733846  0.026436581   -0.0312843 -0.0089987233 -0.0089875713 
   11300   -1726435.3  0.021214639 -0.006504769  0.026424012 -0.031297996 -0.0089916465 -0.008983976 
   11400   -1726435.3  0.021184922 -0.0065336363  0.026412209 -0.031310647 -0.0089851846 -0.0089805871 
   11500   -1726435.3  0.021153476 -0.0065636401  0.026399691 -0.031323851 -0.0089785171 -0.0089769806 
   11600   -1726435.3  0.021122534 -0.0065926385  0.026387345 -0.031336665 -0.0089721215 -0.0089734125 
   11700   -1726435.3  0.021091384 -0.0066213272  0.026374887 -0.031349394 -0.0089658418 -0.0089698019 
   11800   -1726435.3  0.021058967 -0.006650668  0.026361889 -0.031362467 -0.0089594693 -0.0089660256 
   11900   -1726435.3  0.021028287 -0.0066779695  0.026349558  -0.03137468 -0.0089535858 -0.0089624348 
   12000   -1726435.3  0.020995656 -0.0067065281  0.026336408 -0.031387505 -0.0089474796 -0.0089585986 
   12100   -1726435.3  0.020963736 -0.0067340046  0.026323512 -0.031399894 -0.0089416519 -0.0089548297 
   12200   -1726435.3  0.020932009 -0.0067608808   0.02631066 -0.031412059 -0.0089359966 -0.0089510682 
   12300   -1726435.3  0.020898823 -0.0067885463   0.02629718 -0.031424629 -0.0089302224 -0.0089471181 
   12400   -1726435.3  0.020866206 -0.0068153078  0.026283894 -0.031436835 -0.0089246827 -0.0089432209 
   12500   -1726435.3  0.020834253 -0.0068411268  0.026270843 -0.031448654 -0.0089193811 -0.0089393892 
   12600   -1726435.3  0.020800531 -0.0068679611  0.026257032 -0.031460983 -0.0089139161 -0.0089353313 
   12700   -1726435.3  0.020768027 -0.0068934385   0.02624368 -0.031472731 -0.0089087701 -0.0089314067 
   12800   -1726435.3  0.020735347 -0.0069186823  0.026230218 -0.031484412 -0.0089037124 -0.0089274481 
   12900   -1726435.3  0.020701417 -0.0069445096  0.026216201 -0.031496405 -0.0088985803 -0.0089233254 
   13000   -1726435.3  0.020667456 -0.0069699845  0.026202129 -0.031508275 -0.0088935603 -0.0089191863 
   13100   -1726435.3   0.02063504 -0.0069939589  0.026188658 -0.031519483 -0.0088888742 -0.0089152241 
   13200   -1726435.3   0.02060121 -0.0070186357  0.026174557 -0.031531057 -0.0088840894 -0.0089110775 
   13300   -1726435.3  0.020566226 -0.0070437954  0.026159931 -0.031542897 -0.0088792511 -0.0089067776 
   13400   -1726435.3  0.020533679 -0.0070668856  0.026146283 -0.031553797 -0.0088748466 -0.0089027666 
   13500   -1726435.3  0.020499834 -0.0070905804  0.026132048 -0.031565016 -0.008870362 -0.0088985854 
   13600   -1726435.3  0.020464488 -0.0071149935  0.026117135 -0.031576611 -0.0088657786 -0.0088942076 
   13700   -1726435.3  0.020431694 -0.0071373473  0.026103257  -0.03158726 -0.0088616148 -0.0088901362 
   13800   -1726435.3  0.020397443 -0.0071603986  0.026088717 -0.031598272 -0.0088573536 -0.008885874 
   13900   -1726435.3  0.020362384 -0.0071836886  0.026073788  -0.03160943 -0.0088530818 -0.0088815013 
   14000   -1726435.3  0.020329118 -0.0072055105  0.026059578 -0.031619913 -0.0088491094 -0.0088773428 
   14100   -1726435.3   0.02029395 -0.0072282934  0.026044509 -0.031630888 -0.0088449927 -0.0088729371 
   14200   -1726435.3  0.020259831 -0.0072501223  0.026029844 -0.031641431 -0.0088410777 -0.0088686539 
   14300   -1726435.3  0.020225439 -0.0072718599  0.026015014 -0.031651957 -0.008837207 -0.0088643273 
   14400   -1726435.3   0.02018983 -0.0072940921  0.025999611  -0.03166275 -0.0088332767 -0.0088598385 
   14500   -1726435.3  0.020156165 -0.0073148593  0.025985002 -0.031672857 -0.0088296309 -0.0088555862 
   14600   -1726435.3    0.0201206 -0.0073365396  0.025969519 -0.031683433 -0.0088258507 -0.0088510851 
   14700   -1726435.3  0.020086002 -0.0073573818  0.025954409 -0.031693624 -0.0088222411 -0.008846698 
   14800   -1726435.3  0.020051401 -0.0073779853   0.02593925 -0.031703721 -0.008818696 -0.0088423021 
   14900   -1726435.3  0.020014908 -0.0073994609   0.02592321 -0.031714269 -0.0088150248 -0.0088376571 
   15000   -1726435.3  0.019981111 -0.0074191222  0.025908306 -0.031723947 -0.0088116847 -0.0088333474 
   15100   -1726435.3  0.019945885 -0.0074393867  0.025892723 -0.031733942 -0.0088082624 -0.0088288472 
   15200   -1726435.3  0.019909218 -0.0074602379  0.025876449 -0.031744248 -0.0088047622 -0.0088241545 
   15300   -1726435.3  0.019875302 -0.0074793091  0.025861347 -0.031753693 -0.008801579 -0.008819806 
   15400   -1726435.3  0.019839913 -0.0074989926  0.025845538 -0.031763459 -0.0087983112 -0.0088152608 
   15500   -1726435.3  0.019803395 -0.0075190769  0.025829172 -0.031773443 -0.0087949947 -0.0088105624 
   15600   -1726435.3  0.019769205 -0.007537676  0.025813798 -0.031782705 -0.008791939 -0.0088061557 
   15700   -1726435.3  0.019733369 -0.0075569618  0.025797633 -0.031792326 -0.0087887857 -0.0088015291 
   15800   -1726435.3  0.019697161 -0.0075762351  0.025781246 -0.031801957 -0.0087856492 -0.0087968464 
   15900   -1726435.3  0.019662641 -0.0075944146  0.025765571 -0.031811057 -0.0087827037 -0.0087923743 
   16000   -1726435.3  0.019626316 -0.0076133417  0.025749024 -0.031820545 -0.0087796497 -0.0087876605 
   16100   -1726435.3  0.019591123 -0.0076314853  0.025732939 -0.031829654 -0.0087767338 -0.0087830859 
   16200   -1726435.3  0.019556128 -0.0076493399  0.025716893 -0.031838632 -0.0087738747 -0.0087785293 
   16300   -1726435.3  0.019519437 -0.0076678629  0.025700014 -0.031847958 -0.0087709188 -0.0087737441 
   16400   -1726435.3  0.019485134 -0.0076850019  0.025684182   -0.0318566 -0.0087681925 -0.0087692628 
   16500   -1726435.3  0.019450026 -0.007702367  0.025667926 -0.031865366 -0.008765438 -0.0087646688 
   16600   -1726435.3  0.019413513 -0.0077202409  0.025650965 -0.031874401 -0.0087626104 -0.008759883 
   16700   -1726435.3  0.019379757 -0.0077365989  0.025635233 -0.031882679 -0.0087600287 -0.0087554513 
   16800   -1726435.3  0.019344261 -0.0077536303  0.025618638 -0.031891308 -0.0087573463 -0.0087507836 
   16900   -1726435.3  0.019309298 -0.0077702386   0.02560224 -0.031899731 -0.0087547353 -0.0087461784 
   17000   -1726435.3  0.019274825 -0.0077864535   0.02558602 -0.031907963  -0.00875219 -0.0087416303 
   17100   -1726435.3  0.019239021 -0.0078031279  0.025569119 -0.031916437 -0.008749576 -0.008736899 
   17200   -1726435.3   0.01920534 -0.0078186606   0.02555317 -0.031924338 -0.0087471433 -0.0087324409 
   17300   -1726435.3  0.019169563 -0.0078350003  0.025536174 -0.031932657 -0.008744586 -0.0087276976 
   17400   -1726435.3  0.019135967 -0.0078501959  0.025520164 -0.031940399 -0.0087422088 -0.0087232361 
   17500   -1726435.3  0.019100785 -0.0078659565  0.025503346 -0.031948436 -0.0087397436 -0.0087185564 
   17600   -1726435.3  0.019066518 -0.0078811598  0.025486913 -0.031956194 -0.0087373653 -0.008713991 
   17700   -1726435.3  0.019032218 -0.0078962334  0.025470412 -0.031963892 -0.0087350062 -0.0087094136 
   17800   -1726435.3  0.018996801 -0.0079116489   0.02545332 -0.031971769 -0.0087325919 -0.0087046792 
   17900   -1726435.3   0.01896353 -0.0079259928  0.025437214 -0.031979102 -0.0087303432 -0.0087002245 
   18000   -1726435.3  0.018928429 -0.0079409842  0.025420168 -0.031986772  -0.00872799 -0.0086955167 
   18100   -1726435.3  0.018894481 -0.0079553456  0.025403631 -0.031994122 -0.0087257322 -0.0086909562 
   18200   -1726435.3  0.018860633 -0.0079695319  0.025387092 -0.032001387 -0.0087234977 -0.0086864013 
   18300   -1726435.3  0.018825134 -0.0079842691  0.025369691 -0.032008936 -0.0087211715 -0.0086816162 
   18400   -1726435.3  0.018792404 -0.0079977298  0.025353598 -0.032015835 -0.0087190416 -0.0086771969 
   18500   -1726435.3  0.018758193 -0.0080116708  0.025336726 -0.032022982 -0.0087168298 -0.0086725699 
   18600   -1726435.3  0.018722808 -0.008025953   0.02531922 -0.032030306 -0.0087145569 -0.0086677759 
   18700   -1726435.3  0.018689471 -0.0080392827  0.025302676 -0.032037143 -0.0087124285 -0.0086632514 
   18800   -1726435.3   0.01865641 -0.0080523817  0.025286219 -0.032043863 -0.0087103296 -0.0086587568 
   18900   -1726435.3   0.01862214 -0.0080658347  0.025269109 -0.032050766 -0.0087081657 -0.0086540899 
   19000   -1726435.3  0.018587846 -0.0080791714  0.025251933 -0.032057611 -0.0087060115 -0.0086494114 
   19100   -1726435.3   0.01855523 -0.0080917387  0.025235549 -0.032064061 -0.0087039726 -0.0086449541 
   19200   -1726435.3  0.018520965 -0.0081048207  0.025218285 -0.032070775 -0.0087018403 -0.0086402632 
   19300   -1726435.3  0.018487374 -0.0081175259  0.025201309 -0.032077296 -0.008699759 -0.0086356566 
   19400   -1726435.3  0.018454595 -0.0081298108  0.025184693 -0.032083602 -0.008697736 -0.0086311533 
   19500   -1726435.3  0.018420858 -0.0081423391  0.025167541 -0.032090031 -0.0086956615 -0.0086265102 
   19600   -1726435.3  0.018386388 -0.0081550192  0.025149962 -0.032096538 -0.0086935495 -0.0086217574 
   19700   -1726435.3  0.018353036 -0.008167173  0.025132903 -0.032102774 -0.0086915126 -0.0086171506 
   19800   -1726435.3  0.018320812 -0.008178809  0.025116371 -0.032108743 -0.0086895501 -0.0086126915 
   19900   -1726435.3  0.018287391 -0.0081907672  0.025099175 -0.032114875 -0.0086875201 -0.0086080584 
   20000   -1726435.3   0.01825338 -0.0082028226  0.025081623 -0.032121056 -0.0086854593 -0.0086033347 
   20100   -1726435.3  0.018221463 -0.0082140316  0.025065103 -0.032126801 -0.0086835294 -0.0085988936 
   20200   -1726435.3   0.01818849 -0.0082255059  0.025047987  -0.03213268 -0.0086815394 -0.0085942974 
   20300   -1726435.3  0.018154285 -0.0082372968  0.025030178 -0.032138719 -0.0086794785 -0.0085895203 
   20400   -1726435.3  0.018122764 -0.0082480621  0.025013719  -0.03214423 -0.0086775819 -0.0085851098 
   20500   -1726435.3  0.018090048 -0.0082591337  0.024996587 -0.032149895 -0.0086756157 -0.0085805236 
   20600   -1726435.3  0.018056159 -0.0082704938  0.024978788 -0.032155705 -0.0086735808 -0.0085757638 
   20700   -1726435.3  0.018023977 -0.0082811803  0.024961837 -0.032161167 -0.0086716499 -0.0085712353 
   20800   -1726435.3  0.017992064 -0.0082916801  0.024944979 -0.032166531 -0.0086697359 -0.0085667359 
   20900   -1726435.3  0.017959088 -0.0083024285  0.024927509 -0.032172018 -0.0086677587 -0.0085620779 
   21000   -1726435.3  0.017925266 -0.0083133463  0.024909539 -0.032177588 -0.0086657308 -0.0085572908 
   21100   -1726435.3  0.017893482 -0.0083235091  0.024892602 -0.032182768 -0.0086638247 -0.0085527833 
   21200   -1726435.3   0.01786189 -0.0083335168  0.024875721 -0.032187866 -0.0086619295 -0.0085482944 
   21300   -1726435.3  0.017829304 -0.0083437424  0.024858259 -0.032193071 -0.0086599734 -0.0085436552 
   21400   -1726435.3  0.017796379 -0.0083539751  0.024840565 -0.032198274 -0.0086579953 -0.0085389584 
   21500   -1726435.3  0.017765376 -0.0083635191  0.024823856 -0.032203124 -0.0086561309 -0.008534527 
   21600   -1726435.3   0.01773288 -0.0083734283  0.024806294 -0.032208154 -0.0086541744 -0.0085298729 
   21700   -1726435.3   0.01770096 -0.0083830683  0.024788995 -0.032213042  -0.00865225 -0.0085252922 
   21800   -1726435.3  0.017669664 -0.0083924299  0.024771987 -0.032217785 -0.0086503602 -0.008520792 
   21900   -1726435.3  0.017636716 -0.0084021898  0.024754031 -0.032222724 -0.0086483673 -0.0085160446 
   22000   -1726435.3  0.017606287 -0.0084111165  0.024737401 -0.032227236 -0.0086465233 -0.0085116513 
   22100   -1726435.3  0.017574234 -0.0084204298  0.024719836 -0.032231938 -0.0086445768 -0.0085070141 
   22200   -1726435.3  0.017542442 -0.0084295766  0.024702366 -0.032236551 -0.0086426419 -0.0085024052 
   22300   -1726435.3  0.017511737 -0.0084383247  0.024685447 -0.032240957 -0.0086407687 -0.0084979448 
   22400   -1726435.3  0.017479791 -0.0084473374  0.024667796  -0.03224549 -0.0086388149 -0.0084932946 
   22500   -1726435.3  0.017447645 -0.0084563155  0.024649985     -0.03225 -0.0086368434 -0.0084886053 
   22600   -1726435.3  0.017417026 -0.0084647821  0.024632974 -0.032254247 -0.0086349602 -0.0084841294 
   22700   -1726435.3  0.017386205 -0.0084732208  0.024615805 -0.032258474 -0.008633059 -0.0084796147 
   22800   -1726435.3  0.017354254 -0.0084818809  0.024597958 -0.032262805 -0.0086310819 -0.0084749245 
   22900   -1726435.3  0.017323691 -0.0084900813   0.02458084 -0.032266899 -0.0086291846 -0.0084704286 
   23000   -1726435.3  0.017293148 -0.0084981946  0.024563688 -0.032270944 -0.0086272821 -0.0084659261 
   23100   -1726435.3  0.017261153 -0.0085066065  0.024545672 -0.032275131 -0.008625282 -0.0084611994 
   23200   -1726435.3  0.017231635 -0.0085142881  0.024529007 -0.032278947 -0.0086234302 -0.0084568295 
   23300   -1726435.3  0.017200631 -0.008522275  0.024511457 -0.032282909 -0.0086214778 -0.0084522298 
   23400   -1726435.3  0.017170034 -0.0085300757  0.024494091 -0.032286771 -0.0086195437 -0.0084476806 
   23500   -1726435.3  0.017140031 -0.0085376461  0.024477018 -0.032290511 -0.0086176396 -0.0084432102 
   23600   -1726435.3  0.017108415 -0.0085455397   0.02445898 -0.032294404 -0.0086156248 -0.0084384893 
   23700   -1726435.3  0.017079301 -0.0085527325  0.024442326 -0.032297944 -0.0086137618 -0.0084341325 
   23800   -1726435.3  0.017048612 -0.0085602356  0.024424725 -0.032301629 -0.0086117896 -0.0084295301 
   23900   -1726435.3  0.017018424 -0.0085675376  0.024407368 -0.032305208 -0.0086098412 -0.008424993 
   24000   -1726435.3  0.016988725 -0.0085746451  0.024390247 -0.032308684 -0.0086079157 -0.0084205195 
   24100   -1726435.3  0.016957403 -0.0085820593  0.024372144 -0.032312301 -0.0086058756 -0.0084157912 
   24200   -1726435.3  0.016928569 -0.0085888108  0.024355436 -0.032315587 -0.0086039889 -0.0084114288 
   24300   -1726435.3  0.016898404 -0.0085957981  0.024337913  -0.03231898 -0.0086020058 -0.0084068551 
   24400   -1726435.3  0.016867492 -0.0086028785  0.024319908  -0.03232241 -0.0085999635 -0.0084021574 
   24500   -1726435.3  0.016838819 -0.0086093733  0.024303166 -0.032325547 -0.0085980599 -0.0083977903 
   24600   -1726435.3  0.016808619 -0.0086161387  0.024285487 -0.032328807 -0.008596045 -0.0083931803 
   24700   -1726435.3  0.016778814  -0.00862274  0.024267996 -0.032331979 -0.0085940463 -0.0083886206 
   24800   -1726435.3  0.016749711 -0.0086291133  0.024250874 -0.032335033 -0.0085920848 -0.0083841581 
   24900   -1726435.3  0.016719187 -0.0086357207  0.024232871  -0.03233819 -0.0085900167 -0.0083794672 
   25000   -1726435.3  0.016690415 -0.0086418774  0.024215858 -0.032341122 -0.0085880569 -0.0083750355 
   25100   -1726435.3  0.016660881 -0.0086481242  0.024198352 -0.032344088 -0.0085860347 -0.0083704761 
   25200   -1726435.3  0.016630889 -0.0086543932  0.024180529 -0.032347055 -0.0085839699 -0.0083658354 
   25300   -1726435.3  0.016602344 -0.008660289  0.024163525 -0.032349837 -0.008581994 -0.0083614086 
   25400   -1726435.3  0.016572215 -0.008666438  0.024145532 -0.032352728 -0.0085798969 -0.0083567252 
   25500   -1726435.3   0.01654355 -0.0086722176  0.024128372 -0.032355435 -0.0085778906 -0.0083522594 
   25600   -1726435.3  0.016514459 -0.0086780125  0.024110913 -0.032358141 -0.0085758431 -0.0083477166 
   25700   -1726435.3  0.016484692 -0.0086838688  0.024093006 -0.032360864 -0.008573736 -0.0083430576 
   25800   -1726435.3  0.016456484 -0.0086893499  0.024075994 -0.032363403 -0.0085717278 -0.0083386322 
   25900   -1726435.3  0.016426597 -0.0086950844  0.024057927 -0.032366049 -0.0085695879 -0.0083339326 
   26000   -1726435.3  0.016398415 -0.0087004237  0.024040848 -0.032368502 -0.0085675582 -0.0083294908 
   26100   -1726435.3  0.016369466 -0.008705839  0.024023263  -0.03237098 -0.0085654612 -0.0083249174 
   26200   -1726435.3  0.016340193 -0.0087112438  0.024005438 -0.032373442 -0.0085633281 -0.0083202822 
   26300   -1726435.3  0.016312126 -0.0087163588  0.023988306 -0.032375761 -0.0085612708 -0.0083158273 
   26400   -1726435.3  0.016282379 -0.0087217082  0.023970105 -0.032378175 -0.0085590772 -0.0083110948 
   26500   -1726435.3  0.016254879 -0.0087265879  0.023953239 -0.032380367 -0.0085570371 -0.0083067093 
   26600   -1726435.3  0.016225444 -0.0087317409  0.023935143 -0.032382669 -0.0085548404 -0.0083020043 
   26700   -1726435.3  0.016197654 -0.0087365401  0.023918018 -0.032384803 -0.0085527537 -0.0082975517 
   26800   -1726435.3   0.01616909 -0.0087414055  0.023900375 -0.032386954 -0.008550596 -0.0082929643 
   26900   -1726435.3  0.016139919 -0.0087463045  0.023882313 -0.032389107 -0.0085483788 -0.0082882683 
   27000   -1726435.3  0.016112411 -0.008750859  0.023865242 -0.032391098 -0.0085462751 -0.0082838294 
   27100   -1726435.3  0.016083845 -0.0087555222  0.023847472 -0.032393124 -0.008544077 -0.0082792088 
   27200   -1726435.3  0.016054835 -0.0087601883  0.023829384 -0.032395138 -0.0085418306 -0.008274505 
   27300   -1726435.3   0.01602614 -0.0087647351  0.023811449 -0.032397088 -0.0085395945 -0.0082698409 
   27400   -1726435.3  0.015998823 -0.0087689996  0.023794336 -0.032398904 -0.0085374525 -0.0082653902 
   27500   -1726435.3  0.015970462 -0.0087733613  0.023776528 -0.032400749 -0.0085352148 -0.0082607585 
   27600   -1726435.3  0.015941234 -0.0087777866  0.023758133 -0.032402607 -0.0085328938 -0.0082559734 
   27700   -1726435.3  0.015914284 -0.0087818039  0.023741132  -0.03240428 -0.0085307401 -0.0082515505 
   27800   -1726435.3  0.015886423 -0.0087858935  0.023723516 -0.032405971 -0.0085284997 -0.0082469673 
   27900   -1726435.3  0.015857544 -0.0087900644  0.023705214  -0.03240768 -0.0085261625 -0.0082422048 
   28000   -1726435.3  0.015830315 -0.0087939335  0.023687919 -0.032409252 -0.0085239447 -0.0082377037 
   28100   -1726435.3  0.015802806 -0.0087977796  0.023670406 -0.032410801  -0.00852169 -0.0082331454 
   28200   -1726435.3  0.015774162 -0.0088017174  0.023652129 -0.032412372 -0.0085193271 -0.0082283872 
   28300   -1726435.3  0.015746656 -0.0088054348  0.023634538  -0.03241384 -0.0085170433 -0.0082238069 
   28400   -1726435.3  0.015719607 -0.0088090288    0.0236172 -0.032415245 -0.0085147833 -0.0082192918 
   28500   -1726435.3  0.015691524 -0.0088126957  0.023599159 -0.032416663 -0.0085124217 -0.0082145926 
   28600   -1726435.3  0.015663524 -0.0088162866  0.023581131 -0.032418036 -0.0085100518 -0.0082098959 
   28700   -1726435.3  0.015636825 -0.0088196495  0.023563902 -0.032419307 -0.0085077775 -0.0082054064 
   28800   -1726435.3  0.015609131 -0.0088230751  0.023545991 -0.032420585 -0.0085054033 -0.0082007382 
   28900   -1726435.3  0.015580923 -0.0088264988  0.023527706 -0.032421845 -0.0085029691 -0.0081959716 
   29000   -1726435.3  0.015554613 -0.008829632  0.023510614 -0.032422983 -0.0085006842 -0.0081915148 
   29100   -1726435.3  0.015527089 -0.008832848  0.023492695 -0.032424134 -0.0084982785 -0.0081868411 
   29200   -1726435.3   0.01549916 -0.008836047  0.023474471 -0.032425261 -0.0084958215 -0.0081820868 
   29300   -1726435.3  0.015472838 -0.0088390021  0.023457257 -0.032426285 -0.0084934907 -0.0081775949 
   29400   -1726435.3  0.015445657 -0.0088419929  0.023439444 -0.032427304 -0.0084910686 -0.0081729452 
   29500   -1726435.3  0.015417684 -0.0088450065   0.02342107 -0.032428311 -0.0084885595 -0.0081681479 
   29600   -1726435.3  0.015390494 -0.0088478733  0.023403171 -0.032429251 -0.0084861045 -0.0081634733 
   29700   -1726435.3  0.015364034 -0.0088506035  0.023385715 -0.032430127 -0.0084837001 -0.008158913 
   29800   -1726435.3  0.015337278 -0.0088533047  0.023368026 -0.032430975 -0.0084812532 -0.0081542904 
   29900   -1726435.3   0.01530983 -0.0088560135   0.02334984 -0.032431805 -0.0084787268 -0.0081495365 
   30000   -1726435.3  0.015282593 -0.0088586393  0.023331754 -0.032432589 -0.0084762033 -0.0081448074 
   30100   -1726435.3   0.01525662 -0.0088610852   0.02331447 -0.032433299 -0.0084737813 -0.0081402864 
   30200   -1726435.3  0.015229658 -0.0088635643  0.023296491 -0.032433998 -0.0084712511 -0.0081355818 
   30300   -1726435.3  0.015202431 -0.0088660063  0.023278294 -0.032434665 -0.0084686793 -0.008130819 
   30400   -1726435.3   0.01517664 -0.0088682618  0.023261021 -0.032435259 -0.0084662274 -0.0081262963 
   30500   -1726435.3  0.015149729 -0.0088705557  0.023242961  -0.03243584 -0.0084636528 -0.0081215656 
   30600   -1726435.3  0.015121819 -0.0088728705  0.023224188 -0.032436402 -0.0084609649 -0.0081166468 
   30700   -1726435.3   0.01509584 -0.0088749667  0.023206677 -0.032436887 -0.0084584466 -0.0081120567 
   30800   -1726435.3  0.015070137 -0.0088769844  0.023189316 -0.032437331 -0.0084559394 -0.0081075044 
   30900   -1726435.3  0.015043648 -0.0088790056  0.023171387  -0.03243775 -0.0084533391 -0.0081028012 
   31000   -1726435.3  0.015016528 -0.0088810137  0.023152992 -0.032438141 -0.0084506595 -0.0080979739 
   31100   -1726435.3  0.014990453 -0.0088828863  0.023135268 -0.032438478 -0.0084480664 -0.0080933209 
   31200   -1726435.3  0.014964756 -0.0088846753  0.023117765 -0.032438774 -0.008445495 -0.0080887242 
   31300   -1726435.3  0.014938192 -0.0088864662  0.023099634 -0.032439041 -0.0084428197 -0.0080839605 
   31400   -1726435.3  0.014910997 -0.0088882378  0.023081033 -0.032439275 -0.008440063 -0.0080790713 
   31500   -1726435.3  0.014885601 -0.0088898361  0.023063626 -0.032439457 -0.0084374722 -0.008074494 
   31600   -1726435.3  0.014859989 -0.0088913924  0.023046036 -0.032439605 -0.0084348431 -0.0080698667 
   31700   -1726435.3  0.014833351 -0.0088929522  0.023027702  -0.03243972 -0.0084320912 -0.0080650417 
   31800   -1726435.3   0.01480771 -0.0088943971  0.023010019 -0.032439793 -0.0084294254 -0.0080603859 
   31900   -1726435.3  0.014782199 -0.0088957791   0.02299239 -0.032439831 -0.0084267566 -0.0080557422 
   32000   -1726435.3  0.014755549 -0.0088971638  0.022973936 -0.032439831 -0.008423951 -0.0080508792 
   32100   -1726435.3  0.014730257 -0.0088984225  0.022956386 -0.032439795 -0.0084212714 -0.0080462523 
   32200   -1726435.3  0.014704826 -0.0088996331  0.022938705 -0.032439722 -0.0084185604 -0.0080415886 
   32300   -1726435.3  0.014678344 -0.0089008352  0.022920255 -0.032439609 -0.0084157195 -0.0080367201 
   32400   -1726435.3  0.014653411 -0.0089019127  0.022902849 -0.032439466 -0.008413028 -0.0080321249 
   32500   -1726435.3  0.014627845 -0.0089029623  0.022884967 -0.032439283 -0.0084102513 -0.0080274016 
   32600   -1726435.3  0.014601781 -0.0089039754  0.022866698 -0.032439059 -0.0084074025 -0.008022574 
   32700   -1726435.3  0.014577065 -0.0089048822   0.02284934 -0.032438812 -0.0084046845 -0.008017985 
   32800   -1726435.3   0.01455108 -0.0089057794  0.022831055 -0.032438514 -0.0084018092 -0.0080131484 
   32900   -1726435.3  0.014525925 -0.0089065933  0.022813318  -0.03243819 -0.0083990084 -0.0080084546 
   33000   -1726435.3  0.014500887 -0.0089073494  0.022795628 -0.032437832 -0.0083962035 -0.0080037711 
   33100   -1726435.3  0.014474731 -0.0089080821  0.022777113  -0.03243742 -0.0083932553 -0.0079988664 
   33200   -1726435.3  0.014450481 -0.008908709  0.022759912 -0.032437003 -0.0083905052 -0.0079943078 
   33300   -1726435.3  0.014424904 -0.0089093154  0.022741736 -0.032436528 -0.008387587 -0.0079894882 
   33400   -1726435.3  0.014399251 -0.0089098677  0.022723468 -0.032436013 -0.0083846418 -0.0079846419 
   33500   -1726435.3   0.01437493 -0.0089103388  0.022706115 -0.032435491 -0.0083818327 -0.007980036 
   33600   -1726435.3  0.014349617 -0.0089107752   0.02268802 -0.032434911 -0.0083788913 -0.0079752305 
   33700   -1726435.3  0.014324043 -0.0089111603  0.022669702 -0.032434289 -0.0083759014 -0.0079703634 
   33800   -1726435.3  0.014299892 -0.0089114721   0.02265237 -0.032433666 -0.0083730607 -0.0079657558 
   33900   -1726435.3  0.014274628 -0.0089117444  0.022634204 -0.032432979 -0.0083700715 -0.0079609241 
   34000   -1726435.3  0.014249318 -0.0089119624   0.02261597 -0.032432253 -0.0083670585 -0.0079560716 
   34100   -1726435.3  0.014225242 -0.0089121181   0.02259859 -0.032431529 -0.0083641751 -0.0079514442 
   34200   -1726435.3  0.014200117 -0.0089122273   0.02258042 -0.032430738 -0.0083611484 -0.0079466036 
   34300   -1726435.3  0.014175141 -0.008912282  0.022562323 -0.032429915 -0.0083581214 -0.0079417798 
   34400   -1726435.3  0.014151064 -0.0089122833  0.022544843 -0.032429087 -0.008355186 -0.0079371181 
   34500   -1726435.3  0.014125906 -0.008912231  0.022526543 -0.032428186 -0.0083521007 -0.0079322352 
   34600   -1726435.3  0.014101244 -0.0089121268  0.022508571 -0.032427267 -0.0083490581 -0.007927437 
   34700   -1726435.3  0.014077237 -0.0089119745  0.022491042 -0.032426338 -0.008346079 -0.0079227548 
   34800   -1726435.3  0.014052322 -0.0089117634  0.022472816 -0.032425339 -0.008342969 -0.0079178836 
   34900   -1726435.3  0.014027033 -0.0089114943  0.022454281 -0.032424287 -0.0083397934 -0.007912927 
   35000   -1726435.3  0.014003475 -0.0089111933  0.022436982 -0.032423274 -0.0083368177 -0.0079082983 
   35100   -1726435.3  0.013979174 -0.0089108321  0.022419105 -0.032422194 -0.0083337306 -0.0079035123 
   35200   -1726435.3  0.013954334 -0.0089104098  0.022400796 -0.032421054 -0.0083305564 -0.007898608 
   35300   -1726435.3  0.013929304  -0.00890993  0.022382313 -0.032419869 -0.008327339 -0.0078936542 
   35400   -1726435.3  0.013905966 -0.0089094332  0.022365046  -0.03241873 -0.0083243216 -0.0078890237 
   35500   -1726435.3  0.013881735 -0.0089088669  0.022347086 -0.032417514 -0.0083211711 -0.0078842048 
   35600   -1726435.3  0.013856584 -0.0089082249  0.022328409 -0.032416214 -0.0083178817 -0.0078791905 
   35700   -1726435.3  0.013833439 -0.0089075852  0.022311189 -0.032414985 -0.0083148373 -0.007874565 
   35800   -1726435.3  0.013809328 -0.0089068687  0.022293219 -0.032413671 -0.0083116478 -0.0078697349 
   35900   -1726435.3  0.013784691 -0.0089060842  0.022274823 -0.032412292 -0.0083083702 -0.0078647877 
   36000   -1726435.3  0.013761513 -0.0089052972  0.022257483 -0.032410961 -0.0083052689 -0.0078601218 
   36100   -1726435.3  0.013737155 -0.0089044193  0.022239228 -0.032409528 -0.0083019915 -0.007855207 
   36200   -1726435.3   0.01371323 -0.0089035065  0.022221265 -0.032408085 -0.0082987541 -0.0078503678 
   36300   -1726435.3  0.013689837 -0.008902565  0.022203669 -0.032406641 -0.0082955708 -0.0078456249 
   36400   -1726435.3  0.013665401  -0.00890153  0.022185255 -0.032405098 -0.0082922268 -0.0078406586 
   36500   -1726435.3  0.013641943 -0.0089004872  0.022167546 -0.032403582 -0.0082889987 -0.0078358797 
   36600   -1726435.3  0.013618479 -0.0088993952    0.0221498 -0.032402032 -0.0082857516 -0.007831088 
   36700   -1726435.3  0.013594261 -0.0088982171  0.022131451 -0.032400397 -0.0082823816 -0.0078261306 
   36800   -1726435.3  0.013569722 -0.0088969708  0.022112825 -0.032398705 -0.0082789474 -0.0078210954 
   36900   -1726435.3  0.013546751 -0.0088957556  0.022095357 -0.032397087 -0.0082757146 -0.0078163703 
   37000   -1726435.3  0.013523473 -0.0088944764  0.022077625 -0.032395414 -0.0082724209 -0.007811571 
   37100   -1726435.3  0.013499705 -0.0088931207  0.022059487 -0.032393672 -0.0082690394 -0.0078066591 
   37200   -1726435.3  0.013475225 -0.008891672  0.022040771 -0.032391841 -0.0082655368 -0.0078015876 
   37300   -1726435.3  0.013452551 -0.0088902829  0.022023405 -0.032390113 -0.0082622749 -0.0077968792 
   37400   -1726435.3   0.01342941 -0.0088888177   0.02200565 -0.032388316 -0.0082589279 -0.0077920625 
   37500   -1726435.3  0.013405611 -0.0088872612  0.021987359 -0.032386433 -0.008255467 -0.0077870973 
   37600   -1726435.3  0.013381728 -0.0088856487  0.021968969 -0.032384508 -0.0082519746 -0.0077821024 
   37700   -1726435.3  0.013359134 -0.0088840762  0.021951542 -0.032382655 -0.008248653 -0.0077773662 
   37800   -1726435.3  0.013335955 -0.0088824155  0.021933631 -0.032380721 -0.0082452271 -0.0077724959 
   37900   -1726435.3  0.013312164 -0.0088806612  0.021915216   -0.0323787 -0.0082416918 -0.0077674853 
   38000   -1726435.3  0.013288879 -0.0088788954   0.02189716 -0.032376688 -0.0082382127 -0.0077625694 
   38100   -1726435.3  0.013266222 -0.0088771304  0.021879561 -0.032374698 -0.0082348097 -0.0077577752 
   38200   -1726435.3  0.013243125 -0.0088752837  0.021861589 -0.032372636 -0.0082313221 -0.0077528764 
   38300   -1726435.3  0.013219383 -0.0088733356  0.021843082 -0.032370481 -0.0082277178 -0.0077478289 
   38400   -1726435.3  0.013195975 -0.0088713658  0.021824804 -0.032368322 -0.008224145 -0.0077428406 
   38500   -1726435.3  0.013173776 -0.0088694519  0.021807439 -0.032366242 -0.008220739 -0.007738099 
   38600   -1726435.3  0.013150944 -0.0088674371  0.021789549  -0.03236407 -0.0082172176 -0.0077332109 
   38700   -1726435.3  0.013127687 -0.0088653367  0.021771295 -0.032361824 -0.008213612 -0.0077282205 
   38800   -1726435.3   0.01310409 -0.0088631557   0.02175274  -0.03235951 -0.0082099338 -0.0077231448 
   38900   -1726435.3   0.01308157 -0.0088610279  0.021735003 -0.032357268 -0.0082064053 -0.0077182899 
   39000   -1726435.3  0.013059306 -0.0088588788  0.021717436  -0.03235502 -0.0082028988 -0.0077134789 
   39100   -1726435.3  0.013036236 -0.0088566047  0.021699203 -0.032352656 -0.0081992468 -0.0077084824 
   39200   -1726435.3  0.013013226 -0.008854289  0.021680986 -0.032350265 -0.0081955852 -0.0077034874 
   39300   -1726435.3  0.012991227 -0.0088520298   0.02166354 -0.032347947 -0.0081920665 -0.0076987009 
   39400   -1726435.3  0.012968399 -0.0088496393  0.021645407 -0.032345509 -0.0081883968 -0.0076937228 
   39500   -1726435.3  0.012945221 -0.008847164  0.021626963 -0.032342998 -0.0081846513 -0.0076886565 
   39600   -1726435.3  0.012923485 -0.0088447982  0.021609638 -0.032340612 -0.008181121 -0.0076838948 
   39700   -1726435.3  0.012900891 -0.0088422934  0.021591598 -0.032338099 -0.008177433 -0.0076789337 
   39800   -1726435.3  0.012878428 -0.0088397575  0.021573634 -0.032335568 -0.0081737478 -0.0076739904 
   39900   -1726435.3  0.012856137 -0.0088371952  0.021555776 -0.032333024 -0.0081700722 -0.0076690736 
   40000   -1726435.3   0.01283384 -0.0088345873  0.021537884 -0.032330446 -0.0081663773 -0.0076641444 
   40100   -1726435.3  0.012811718 -0.0088319548  0.021520103 -0.032327856 -0.0081626931 -0.007659243 
   40200   -1726435.3  0.012788493 -0.0088291434  0.021501404 -0.032325103 -0.0081588057 -0.0076540856 
   40300   -1726435.3  0.012767035 -0.008826502  0.021484099 -0.032322527 -0.008155196 -0.0076493096 
   40400   -1726435.3  0.012744907 -0.008823734  0.021466224 -0.032319839 -0.0081514554 -0.0076443737 
   40500   -1726435.3  0.012722142 -0.0088208395  0.021447804  -0.03231704 -0.008147588 -0.0076392842 
   40600   -1726435.3  0.012700128 -0.0088179958  0.021429962 -0.032314301 -0.0081438296 -0.0076343516 
   40700   -1726435.3  0.012678422 -0.0088151481   0.02141234 -0.032311568 -0.0081401055 -0.0076294771 
   40800   -1726435.3  0.012655753 -0.0088121279  0.021393906  -0.03230868 -0.0081361972 -0.007624375 
   40900   -1726435.3  0.012634036 -0.0088091907  0.021376217 -0.032305882 -0.0081324345 -0.0076194762 
   41000   -1726435.3  0.012612274 -0.0088062036  0.021358463 -0.032303046 -0.008128646 -0.0076145566 
   41100   -1726435.3  0.012589483 -0.0088030286  0.021339838 -0.032300042 -0.0081246586 -0.0076093926 
   41200   -1726435.3  0.012568344 -0.0088000414  0.021322536 -0.032297224 -0.0081209425 -0.0076045925 
   41300   -1726435.3  0.012546398 -0.0087968964  0.021304544 -0.032294267 -0.0081170661 -0.0075995983 
   41400   -1726435.3  0.012523913 -0.0087936284  0.021286079 -0.032291203 -0.0081130752 -0.0075944702 
   41500   -1726435.3  0.012502869 -0.0087905272   0.02126877 -0.032288305 -0.008109322 -0.0075896599 
   41600   -1726435.3  0.012480825 -0.008787235  0.021250609 -0.032285236 -0.008105372 -0.0075846103 
   41700   -1726435.3  0.012458934 -0.0087839215  0.021232545 -0.032282157 -0.0081014304 -0.0075795846 
   41800   -1726435.3  0.012437691 -0.0087806634  0.021214987 -0.032279137 -0.0080975875 -0.007574697 
   41900   -1726435.3   0.01241538 -0.0087771966  0.021196517 -0.032275932 -0.0080935323 -0.0075695527 
   42000   -1726435.3   0.01239438 -0.0087738917  0.021179104 -0.032272884 -0.0080896972   -0.0075647 
   42100   -1726435.3  0.012372628 -0.008770425  0.021161039 -0.032269695 -0.0080857063 -0.0075596627 
   42200   -1726435.3  0.012351119 -0.0087669544  0.021143148 -0.032266509 -0.0080817415 -0.0075546711 
   42300   -1726435.3  0.012329828 -0.0087634763  0.021125409 -0.032263325 -0.0080777987 -0.0075497194 
   42400   -1726435.3  0.012307754 -0.0087598261  0.021106988  -0.03225999 -0.0080736915 -0.0075445743 
   42500   -1726435.3  0.012287016 -0.0087563554  0.021089655 -0.032256826 -0.0080698152 -0.0075397305 
   42600   -1726435.3   0.01226511 -0.0087526457  0.021071317 -0.032253451 -0.0080657014 -0.0075346026 
   42700   -1726435.3   0.01224408 -0.0087490427  0.021053684  -0.03225018 -0.008061734 -0.0075296695 
   42800   -1726435.3  0.012222854 -0.0087453639  0.021035858 -0.032246847 -0.0080577113 -0.0075246797 
   42900   -1726435.3  0.012200727 -0.0087414846  0.021017247 -0.032243339 -0.0080534984 -0.0075194671 
   43000   -1726435.3  0.012180199 -0.0087378449  0.020999953 -0.032240054 -0.008049572 -0.0075146208 
   43100   -1726435.3  0.012158973 -0.0087340396  0.020982043 -0.032236626 -0.0080454938 -0.0075095991 
   43200   -1726435.3  0.012136943 -0.0087300458  0.020963425 -0.032233034 -0.0080412415 -0.0075043759 
   43300   -1726435.3  0.012116396 -0.0087262805  0.020946034 -0.032229653 -0.0080372576 -0.0074994944 
   43400   -1726435.3  0.012095442 -0.0087223992  0.020928269 -0.032226174 -0.0080331765 -0.0074945055 
   43500   -1726435.3   0.01207383 -0.0087183533  0.020909919 -0.032222554 -0.0080289483 -0.0074893493 
   43600   -1726435.3  0.012052611 -0.0087143386  0.020891874 -0.032218967 -0.008024778 -0.0074842759 
   43700   -1726435.3  0.012032074 -0.0087104126  0.020874382 -0.032215464 -0.008020724 -0.0074793557 
   43800   -1726435.3   0.01201096 -0.0087063349  0.020856371 -0.032211832 -0.0080165375 -0.0074742866 
   43900   -1726435.3  0.011989289 -0.0087021059  0.020837855  -0.03220807 -0.0080122209 -0.0074690725 
   44000   -1726435.3  0.011968427 -0.0086979937  0.020820003 -0.032204417 -0.008008047 -0.0074640428 
   44100   -1726435.3  0.011948064 -0.0086939399   0.02080255 -0.032200822 -0.0080039549 -0.0074591232 
   44200   -1726435.3  0.011927024 -0.0086897104  0.020784491 -0.032197075 -0.0079997085 -0.0074540296 
   44300   -1726435.3  0.011905629 -0.0086853673  0.020766098 -0.032193232 -0.0079953712 -0.0074488395 
   44400   -1726435.3  0.011885564 -0.0086812544  0.020748821 -0.032189597 -0.0079912856 -0.0074439617 
   44500   -1726435.3   0.01186452 -0.0086769002  0.020730675 -0.032185754 -0.0079869822 -0.0074388358 
   44600   -1726435.3   0.01184384 -0.0086725808  0.020712815 -0.032181946 -0.0079827348 -0.007433788 
   44700   -1726435.3  0.011823447 -0.0086682816  0.020695176  -0.03217816 -0.0079785283 -0.0074288003 
   44800   -1726435.3  0.011802257 -0.0086637732   0.02067682 -0.032174194 -0.0079741385 -0.0074236073 
   44900   -1726435.3  0.011782421 -0.0086595139   0.02065961 -0.032170451 -0.0079700113 -0.0074187359 
   45000   -1726435.3  0.011761452 -0.0086549709   0.02064139 -0.032166463  -0.00796563 -0.0074135761 
   45100   -1726435.3    0.0117411 -0.0086505222   0.02062368 -0.032162561 -0.0079613594 -0.0074085581 
   45200   -1726435.3  0.011720312 -0.0086459372  0.020605562 -0.032158544 -0.0079569784 -0.0074034219 
   45300   -1726435.3  0.011699068 -0.0086412097  0.020587019 -0.032154406 -0.0079524819 -0.0073981625 
   45400   -1726435.3  0.011678837 -0.0086366675  0.020569332 -0.032150433 -0.0079481813 -0.0073931436 
   45500   -1726435.3  0.011657638 -0.0086318665  0.020550772 -0.032146239 -0.0079436558 -0.0073878741 
   45600   -1726435.3  0.011637033 -0.0086271593  0.020532703 -0.032142129 -0.0079392381 -0.0073827417 
   45700   -1726435.3  0.011616688 -0.0086224715  0.020514835  -0.03213804 -0.0079348574 -0.0073776637 
   45800   -1726435.3  0.011595401 -0.0086175245  0.020496112 -0.032133728 -0.0079302544 -0.0073723399 
   45900   -1726435.3  0.011575447 -0.0086128487  0.020478535 -0.032129655 -0.0079259214 -0.0073673397 
   46000   -1726435.3  0.011554798 -0.0086079696  0.020460318 -0.032125409 -0.0079214187 -0.0073621549 
   46100   -1726435.3  0.011534155 -0.0086030515  0.020442078 -0.032121132 -0.0079168981 -0.0073569611 
   46200   -1726435.3    0.0115141 -0.0085982346  0.020424332 -0.032116945 -0.0079124882 -0.0073519054 
   46300   -1726435.3  0.011493017 -0.0085931292  0.020405647 -0.032112511 -0.0079078325 -0.0073465798 
   46400   -1726435.3  0.011473389 -0.0085883383  0.020388227 -0.032108353 -0.0079034802 -0.0073416121 
   46500   -1726435.3  0.011452761 -0.0085832635  0.020369892 -0.032103951 -0.0078988875 -0.0073363812 
   46600   -1726435.3  0.011432767 -0.0085783061  0.020352093 -0.032099653 -0.0078944174 -0.007331301 
   46700   -1726435.3  0.011412511 -0.0085732444  0.020334035 -0.032095267 -0.0078898701 -0.0073261441 
   46800   -1726435.3  0.011392366 -0.0085681719  0.020316048 -0.032090874 -0.0078853293 -0.0073210055 
   46900   -1726435.3  0.011372355 -0.0085630941  0.020298155 -0.032086479   -0.0078808 -0.007315891 
   47000   -1726435.3  0.011352143 -0.008557927  0.020280056 -0.032082009 -0.007876207 -0.0073107155 
   47100   -1726435.3  0.011332336 -0.0085528251  0.020262293 -0.032077597 -0.0078716877 -0.0073056338 
   47200   -1726435.3  0.011312105 -0.0085475753  0.020244123 -0.032073059 -0.0078670529 -0.0073004332 
   47300   -1726435.3  0.011292477 -0.0085424442  0.020226469 -0.032068626 -0.0078625381 -0.0072953779 
   47400   -1726435.3  0.011272233 -0.0085371138  0.020208235 -0.032064023 -0.0078578632 -0.0072901543 
   47500   -1726435.3  0.011252786 -0.0085319556  0.020190692  -0.03205957 -0.0078533541 -0.0072851264 
   47600   -1726435.3  0.011232458 -0.0085265254  0.020172328 -0.032054884 -0.0078486221 -0.007279861 
   47700   -1726435.3  0.011213237 -0.0085213542  0.020154939 -0.032050423 -0.0078441301 -0.007274873 
   47800   -1726435.3  0.011192849 -0.0085158302  0.020136468  -0.03204566 -0.0078393465 -0.007269572 
   47900   -1726435.3  0.011173827 -0.0085106402  0.020119209 -0.032041186 -0.0078348656 -0.0072646168 
   48000   -1726435.3  0.011153718 -0.0085051156  0.020100937 -0.032036425 -0.0078301103 -0.0072593687 
   48100   -1726435.3  0.011134441 -0.0084997833  0.020083396 -0.032031831 -0.0078255337 -0.0072543283 
   48200   -1726435.3  0.011114826 -0.0084943206  0.020065522 -0.032027125 -0.0078208591 -0.0072491902 
   48300   -1726435.3  0.011094965 -0.0084887518  0.020047398  -0.03202233 -0.0078161071 -0.0072439778 
   48400   -1726435.3  0.011075916 -0.0084833744  0.020029989   -0.0320177 -0.0078115316 -0.007238969 
   48500   -1726435.3  0.011055892 -0.0084776842  0.020011663 -0.032012803 -0.0078067035 -0.0072336944 
   48600   -1726435.3  0.011036854 -0.0084722387  0.019994216 -0.032008116 -0.0078020955 -0.0072286703 
   48700   -1726435.3  0.011017532 -0.0084666758  0.019976482  -0.03200333 -0.0077974009 -0.0072235619 
   48800   -1726435.3   0.01099744 -0.0084608529  0.019958015 -0.031998321 -0.0077925002 -0.0072182401 
   48900   -1726435.3  0.010978673 -0.0084553789  0.019940741 -0.031993613 -0.0077879051  -0.00721326 
   49000   -1726435.3  0.010959532 -0.0084497607  0.019923099 -0.031988781 -0.0077832011 -0.0072081718 
   49100   -1726435.3  0.010939701 -0.0084439024  0.019904795 -0.031983744 -0.0077783087 -0.0072028904 
   49200   -1726435.3  0.010920772 -0.0084382753  0.019887298 -0.031978905 -0.0077736211 -0.0071978399 
   49300   -1726435.3  0.010901876 -0.008432623  0.019869807 -0.031974046 -0.0077689242 -0.0071927893 
   49400   -1726435.3  0.010882244 -0.008426714  0.019851609 -0.031968966 -0.0077640261 -0.0071875326 
   49500   -1726435.3  0.010863501 -0.0084210381  0.019834211 -0.031964087 -0.0077593322 -0.007182505 
   49600   -1726435.3   0.01084459 -0.0084152764  0.019816633 -0.031959135 -0.0077545789 -0.0071774234 
   49700   -1726435.3  0.010824917 -0.0084092459   0.01979832 -0.031953952 -0.0077496154 -0.0071721274 
   49800   -1726435.3  0.010806662 -0.0084036166  0.019781304 -0.031949113 -0.0077449929 -0.0071672046 
   49900   -1726435.3   0.01078757 -0.0083976941  0.019763483 -0.031944023 -0.0077401405 -0.0071620469 
   50000   -1726435.3  0.010768638 -0.0083917865  0.019745786 -0.031938946 -0.0077353111 -0.0071569234 
   50100   -1726435.3  0.010750099 -0.008385968  0.019728434 -0.031933945 -0.007730565 -0.0071518979 
   50200   -1726435.3  0.010730708 -0.0083798459  0.019710258 -0.031928683 -0.0077255823 -0.0071466318 
   50300   -1726435.3  0.010712429 -0.0083740415  0.019693101 -0.031923694 -0.0077208681 -0.007141659 
   50400   -1726435.3  0.010693757 -0.0083680787  0.019675551 -0.031918569 -0.0077160355 -0.0071365707 
   50500   -1726435.3  0.010674401 -0.0083618618  0.019657333 -0.031913225 -0.0077110075 -0.0071312868 
   50600   -1726435.3  0.010656348 -0.0083560307  0.019640318 -0.031908212 -0.0077063012 -0.0071263501 
   50700   -1726435.3  0.010637763 -0.0083499942  0.019622778 -0.031903022 -0.007701439 -0.0071212593 
   50800   -1726435.3  0.010618565 -0.0083437238  0.019604635 -0.031897631 -0.0076963984 -0.0071159917 
   50900   -1726435.3  0.010600636 -0.008337835  0.019587667 -0.031892567 -0.007691674 -0.0071110636 
   51000   -1726435.3  0.010582136 -0.0083317258  0.019570135 -0.031887314 -0.0076867822 -0.0071059701 
   51100   -1726435.3  0.010563035 -0.0083253831  0.019552009 -0.031881858 -0.0076817132 -0.0071007021 
   51200   -1726435.3  0.010545296 -0.0083194609  0.019535153 -0.031876764 -0.0076769892 -0.0070958014 
   51300   -1726435.3  0.010526791 -0.0083132499  0.019517544 -0.031871421 -0.0076720439 -0.0070906806 
   51400   -1726435.3  0.010507886 -0.0083068709  0.019499532 -0.031865932 -0.0076669741 -0.0070854405 
   51500   -1726435.3  0.010490181 -0.0083008644  0.019482639 -0.031860762 -0.0076622093 -0.0070805245 
   51600   -1726435.3  0.010471911 -0.0082946343  0.019465185   -0.0318554 -0.0076572757 -0.0070754434 
   51700   -1726435.3  0.010453041 -0.0082881652  0.019447132 -0.031849831 -0.007652162 -0.0070701866 
   51800   -1726435.3  0.010435271 -0.0082820419  0.019430109 -0.031844558 -0.0076473298 -0.0070652281 
   51900   -1726435.3  0.010417326 -0.0082758267  0.019412896 -0.031839206 -0.0076424335 -0.0070602127 
   52000   -1726435.3  0.010398838 -0.0082693902  0.019395137 -0.031833661 -0.0076373716 -0.0070550368 
   52100   -1726435.3  0.010380625 -0.0082630172   0.01937762  -0.03182817 -0.0076323677 -0.0070499296 
   52200   -1726435.3   0.01036304 -0.008256833  0.019360685 -0.031822841 -0.0076275202 -0.0070449906 
   52300   -1726435.3  0.010344765 -0.0082503738  0.019343061 -0.031817273 -0.0076224652 -0.0070398493 
   52400   -1726435.3  0.010326644 -0.0082439371  0.019325562 -0.031811723 -0.0076174358 -0.0070347431 
   52500   -1726435.3  0.010309138 -0.0082376879  0.019308635 -0.031806334 -0.0076125607 -0.0070298022 
   52600   -1726435.3  0.010290969 -0.0082311705  0.019291044 -0.031800712 -0.0076074841 -0.0070246662 
   52700   -1726435.3  0.010273089 -0.0082247254   0.01927371  -0.03179515 -0.0076024714 -0.0070196036 
   52800   -1726435.3  0.010255619 -0.0082183974  0.019256751 -0.031789688 -0.0075975574 -0.0070146492 
   52900   -1726435.3  0.010237336 -0.008211743   0.01923898 -0.031783943 -0.0075923975 -0.0070094561 
   53000   -1726435.3  0.010219927 -0.0082053765  0.019222035 -0.031778445 -0.0075874679 -0.0070045033 
   53100   -1726435.3  0.010202377 -0.0081989279  0.019204932 -0.031772874 -0.0075824821 -0.0069995026 
   53200   -1726435.3  0.010184184 -0.0081922115  0.019187179  -0.03176707 -0.0075772967 -0.0069943106 
   53300   -1726435.3  0.010166743 -0.0081857422  0.019170136 -0.031761478 -0.0075723088 -0.0069893252 
   53400   -1726435.3  0.010149452 -0.0081792991   0.01915322 -0.031755906 -0.0075673482 -0.0069843753 
   53500   -1726435.3   0.01013144 -0.0081725556  0.019135573 -0.031750073 -0.0075621634 -0.0069792105 
   53600   -1726435.3  0.010113635 -0.0081658592  0.019118108 -0.031744279 -0.0075570216 -0.0069740974 
   53700   -1726435.3  0.010096641 -0.0081594381  0.019101416 -0.031738721 -0.0075520979 -0.0069692095 
   53800   -1726435.3   0.01007929 -0.0081528527  0.019084352 -0.031733018 -0.0075470547 -0.0069642112 
   53900   -1726435.3   0.01006145 -0.0081460512  0.019066784 -0.031727127 -0.0075418528 -0.0069590644 
   54000   -1726435.3   0.01004357 -0.0081392031  0.019049154 -0.031721193 -0.007536622 -0.0069538979 
   54100   -1726435.3  0.010026835 -0.0081327652  0.019032632 -0.031715612 -0.0075317105 -0.006949055 
   54200   -1726435.3  0.010009624 -0.0081261149  0.019015617 -0.031709845 -0.0075266434 -0.0069440666 
   54300   -1726435.3  0.009991987 -0.0081192701   0.01899816 -0.031703907 -0.0075214344 -0.0069389472 
   54400   -1726435.3 0.0099747396 -0.0081125472  0.018981067 -0.031698072 -0.0075163242 -0.0069339333 
   54500   -1726435.3 0.0099579122 -0.0081059594  0.018964368 -0.031692353 -0.0075113227 -0.0069290341 
   54600   -1726435.3 0.0099404049 -0.0080990759  0.018946973 -0.031686374 -0.0075061029 -0.0069239294 
   54700   -1726435.3 0.0099232722 -0.0080923109  0.018929928 -0.031680495 -0.0075009786 -0.0069189265 
   54800   -1726435.3 0.0099065374 -0.0080856747  0.018913258 -0.031674727 -0.0074959577 -0.0069140325 
   54900   -1726435.3 0.0098891123 -0.0080787354  0.018895878 -0.031668692 -0.0074907134 -0.0069089291 
   55000   -1726435.3 0.0098723089 -0.0080720159  0.018879097 -0.031662845 -0.0074856406 -0.0069040006 
   55100   -1726435.3 0.0098554678 -0.0080652529  0.018862258 -0.031656959 -0.0074805407 -0.0068990538 
   55200   -1726435.3 0.0098381586 -0.0080582732  0.018844928  -0.03165088 -0.0074752829 -0.006893962 
   55300   -1726435.3 0.0098217389 -0.0080516245  0.018828469 -0.031645088 -0.0074702798 -0.0068891248 
   55400   -1726435.3 0.0098043868 -0.0080445696  0.018811053 -0.031638939 -0.0074649765 -0.0068840056 
   55500   -1726435.3 0.0097881003 -0.0080379212  0.018794686 -0.031633141 -0.0074599838 -0.0068791938 
   55600   -1726435.3 0.0097709275 -0.0080308822  0.018777407 -0.031627001 -0.0074547033 -0.0068741129 
   55700   -1726435.3  0.009754614 -0.0080241691  0.018760973 -0.031621141 -0.007449672 -0.0068692794 
   55800   -1726435.3 0.0097375228 -0.0080171073  0.018743733 -0.031614974 -0.0074443848 -0.0068642081 
   55900   -1726435.3 0.0097212982 -0.0080103773  0.018727348 -0.031609094 -0.0074393507 -0.0068593872 
   56000   -1726435.3 0.0097042675 -0.0080032847  0.018710126 -0.031602895 -0.0074340506 -0.0068543196 
   56100   -1726435.3 0.0096880719 -0.0079965138   0.01869373 -0.031596973 -0.0074289953 -0.0068494937 
   56200   -1726435.3 0.0096712043 -0.0079894339  0.018676631 -0.031590779 -0.0074237146 -0.0068444605 
   56300   -1726435.3 0.0096549451 -0.0079825834   0.01866013 -0.031584782 -0.0074186093 -0.0068396021 
   56400   -1726435.3 0.0096383063 -0.0079755455  0.018643222 -0.031578617 -0.0074133693 -0.0068346232 
   56500   -1726435.3 0.0096218591 -0.0079685622  0.018626488 -0.031572498 -0.0074081743 -0.0068296949 
   56600   -1726435.3 0.0096055684 -0.0079616188  0.018609894  -0.03156641 -0.0074030137 -0.0068248067 
   56700   -1726435.3 0.0095885636 -0.0079543431   0.01859255 -0.031560027 -0.0073976108 -0.0068196971 
   56800   -1726435.3 0.0095727477 -0.0079475508    0.0185764 -0.031554066 -0.007392571 -0.0068149383 
   56900   -1726435.3 0.0095562713 -0.0079404482  0.018559554 -0.031547828 -0.0073873054 -0.0068099739 
   57000   -1726435.3 0.0095396998 -0.0079332781  0.018542591 -0.031541528 -0.0073819941 -0.006804974 
   57100   -1726435.3 0.0095238301 -0.0079263858  0.018526326 -0.031535469 -0.0073768928 -0.0068001793 
   57200   -1726435.3 0.0095071481 -0.007919114  0.018509208 -0.031529073 -0.007371515 -0.0067951324 
   57300   -1726435.3 0.0094913269 -0.0079121925  0.018492954 -0.031522981   -0.0073664 -0.0067903394 
   57400   -1726435.3 0.0094750429 -0.0079050422  0.018476204 -0.031516685 -0.0073611203 -0.0067853996 
   57500   -1726435.3 0.0094588589 -0.0078979105  0.018459537 -0.031510401 -0.007355858 -0.0067804837 
   57600   -1726435.3 0.0094429239 -0.0078908628  0.018443106 -0.031504187 -0.0073506618 -0.0067756368 
   57700   -1726435.3 0.0094263943 -0.007883526  0.018426042 -0.031497715 -0.0073452564 -0.0067706024 
   57800   -1726435.3 0.0094108337 -0.0078765945  0.018409959 -0.031491598 -0.0073401534 -0.0067658568 
   57900   -1726435.3 0.0093945387 -0.0078693101  0.018393096 -0.031485165 -0.0073347945 -0.0067608806 
   58000   -1726435.3 0.0093785312 -0.0078621292  0.018376512 -0.031478819 -0.0073295152 -0.0067559859 
   58100   -1726435.3 0.0093628347 -0.0078550629   0.01836023 -0.031472571 -0.007324324 -0.0067511799 
   58200   -1726435.3 0.0093463973 -0.007847637  0.018343159 -0.031466002 -0.0073188724 -0.0067461404 
   58300   -1726435.3 0.0093309482 -0.0078406337  0.018327095 -0.031459802 -0.0073137343 -0.0067413978 
   58400   -1726435.3 0.0093150244 -0.0078333901  0.018310518 -0.031453386 -0.0073084236 -0.0067365031 
   58500   -1726435.3 0.0092988942 -0.0078260276  0.018293707  -0.03144686 -0.0073030291 -0.0067315387 
   58600   -1726435.3 0.0092835094 -0.0078189811  0.018277653 -0.031440611 -0.0072978696 -0.0067267974 
   58700   -1726435.3   0.00926742 -0.0078115868  0.018260844 -0.031434049 -0.0072924589 -0.0067218327 
   58800   -1726435.3 0.0092517333 -0.0078043535  0.018244436 -0.031427626 -0.0072871691 -0.0067169861 
   58900   -1726435.3  0.009236268 -0.0077971982  0.018228241 -0.031421269 -0.0072819397 -0.0067122018 
   59000   -1726435.3 0.0092201902 -0.0077897344  0.018211384 -0.031414633 -0.0072764882 -0.0067072216 
   59100   -1726435.3 0.0092047539 -0.0077825449  0.018195182 -0.031408237  -0.00727124 -0.0067024341 
   59200   -1726435.3 0.0091892858 -0.0077753167  0.018178926 -0.031401802 -0.0072659667 -0.0066976308 
   59300   -1726435.3 0.0091732077 -0.0077677787   0.01816201 -0.031395087 -0.0072604705 -0.0066926317 
   59400   -1726435.3 0.0091581946 -0.0077607168  0.018146196 -0.031388793 -0.0072553244 -0.0066879579 
   59500   -1726435.3 0.0091424746 -0.0077532985  0.018129618 -0.031382176 -0.0072499216 -0.0066830579 
   59600   -1726435.3    0.0091269 -0.0077459252  0.018113174 -0.031375595 -0.0072445545 -0.0066781973 
   59700   -1726435.3 0.0091117478 -0.0077387286  0.018097157 -0.031369168 -0.0072393188 -0.0066734626 
   59800   -1726435.3 0.0090959716 -0.0077312115  0.018080461  -0.03136245 -0.007233853 -0.0066685269 
   59900   -1726435.3 0.0090807469 -0.0077239345  0.018064331 -0.031355942 -0.0072285643 -0.0066637579 
   60000   -1726435.3 0.0090655314 -0.0077166386  0.018048191 -0.031349413 -0.0072232647 -0.0066589859 
   60100   -1726435.3 0.0090496512 -0.0077089996  0.018031327 -0.031342573 -0.0072177188 -0.0066539993 
   60200   -1726435.3 0.0090348374 -0.0077018517  0.018015577 -0.031336168 -0.0072125317 -0.006649342 
   60300   -1726435.3 0.0090195778 -0.0076944657  0.017999334 -0.031329545 -0.0072071746 -0.0066445388 
   60400   -1726435.3 0.0090039081 -0.0076868573  0.017982635 -0.031322718 -0.0072016589 -0.0066396004 
   60500   -1726435.3  0.008988853 -0.007679525  0.017966574 -0.031316134 -0.0071963457 -0.0066348501 
   60600   -1726435.3 0.0089738912 -0.0076722156  0.017950593 -0.031309566 -0.0071910517 -0.0066301236 
   60700   -1726435.3 0.0089583519 -0.0076646007  0.017933976 -0.031302719 -0.0071855389 -0.0066252087 
   60800   -1726435.3 0.0089434275 -0.0076572653  0.017917998 -0.031296119 -0.0071802306 -0.0066204828 
   60900   -1726435.3 0.0089284937 -0.0076499029  0.017901993  -0.03128949 -0.0071749053 -0.0066157483 
   61000   -1726435.3 0.0089129684 -0.0076422256  0.017885334 -0.031282572 -0.0071693547 -0.0066108204 
   61100   -1726435.3 0.0088981385 -0.0076348706  0.017869403  -0.03127594 -0.007164039 -0.0066061077 
   61200   -1726435.3 0.0088833684 -0.0076275232  0.017853518  -0.03126931 -0.0071587313 -0.0066014086 
   61300   -1726435.3 0.0088679286 -0.0076198198  0.017836894 -0.031262355 -0.0071531687 -0.0065964906 
   61400   -1726435.3 0.0088534514 -0.0076125758   0.01782129 -0.031255809 -0.0071479397 -0.006591874 
   61500   -1726435.3 0.0088384165 -0.0076050304  0.017805065 -0.031248986 -0.0071424954 -0.0065870739 
   61600   -1726435.3 0.0088235255 -0.0075975358  0.017788978 -0.031242204 -0.0071370897 -0.0065823144 
   61700   -1726435.3 0.0088088687 -0.0075901374  0.017773126 -0.031235504 -0.0071317556 -0.0065776243 
   61800   -1726435.3   0.00879363 -0.0075824233  0.017756626 -0.031228514 -0.0071261957 -0.0065727425 
   61900   -1726435.3 0.0087793263 -0.0075751614   0.01774112 -0.031221928 -0.0071209639 -0.0065681549 
   62000   -1726435.3 0.0087642743 -0.0075674979  0.017724786 -0.031214973 -0.0071154446 -0.0065633219 
   62100   -1726435.3 0.0087496977 -0.0075600557  0.017708949 -0.031208214 -0.0071100864 -0.0065586363 
   62200   -1726435.3  0.008735121 -0.0075525921  0.017693095 -0.031201431 -0.0071047148 -0.0065539453 
   62300   -1726435.3 0.0087199356 -0.0075447948   0.01767656 -0.031194339 -0.0070991048 -0.006549053 
   62400   -1726435.3 0.0087057163 -0.0075374734   0.01766106 -0.031187675 -0.0070938389 -0.0065444669 
   62500   -1726435.3 0.0086911432 -0.0075299489  0.017645156 -0.031180821 -0.0070884287 -0.0065397613 
   62600   -1726435.3 0.0086760375 -0.0075221274  0.017628653 -0.031173691 -0.0070828068 -0.0065348784 
   62700   -1726435.3 0.0086619258 -0.0075148007  0.017613219 -0.031167007 -0.007077542 -0.0065303117 
   62800   -1726435.3 0.0086474273 -0.0075072525  0.017597344 -0.031160116 -0.0070721198 -0.0065256148 
   62900   -1726435.3 0.0086324043 -0.0074994095  0.017580876  -0.03115295 -0.0070664875 -0.0065207425 
   63000   -1726435.3  0.008618324 -0.007492039  0.017565424 -0.031146211 -0.0070611959 -0.006516171 
   63100   -1726435.3 0.0086039713 -0.0074845055  0.017549657 -0.031139317 -0.007055789 -0.006511506 
   63200   -1726435.3 0.0085891203 -0.0074766892  0.017533323  -0.03113216 -0.0070501806 -0.0065066738 
   63300   -1726435.3  0.008574942 -0.0074692073  0.017517713 -0.031125303 -0.0070448134 -0.0065020555 
   63400   -1726435.3 0.0085607841 -0.007461716  0.017502107 -0.031118432 -0.0070394411 -0.0064974388 
   63500   -1726435.3 0.0085459912 -0.0074538679  0.017485784 -0.031111229 -0.0070338143 -0.0064926099 
   63600   -1726435.3 0.0085320466 -0.0074464506   0.01747038 -0.031104415 -0.0070284976 -0.0064880531 
   63700   -1726435.3 0.0085178338 -0.0074388706  0.017454662 -0.031097447 -0.0070230658 -0.0064834037 
   63800   -1726435.3 0.0085030982 -0.0074309912  0.017438349 -0.031090198 -0.0070174206 -0.0064785782 
   63900   -1726435.3  0.008489388 -0.007423641  0.017423154 -0.031083431 -0.0070121559 -0.0064740837 
   64000   -1726435.3 0.0084750636 -0.0074159417  0.017407261 -0.031076336 -0.0070066424 -0.006469383 
   64100   -1726435.3 0.0084609326 -0.0074083271  0.017391566 -0.031069314 -0.0070011906 -0.0064647409 
   64200   -1726435.3 0.0084469522 -0.007400774  0.017376021 -0.031062344 -0.0069957842 -0.0064601434 
   64300   -1726435.3 0.0084325135 -0.0073929538  0.017359949 -0.031055121 -0.0069901876 -0.0064553904 
   64400   -1726435.3 0.0084188573 -0.0073855382  0.017344731 -0.031048266 -0.0069848818 -0.0064508902 
   64500   -1726435.3 0.0084044327 -0.0073776857   0.01732864 -0.031041002 -0.0069792645 -0.0064461319 
   64600   -1726435.3 0.0083908366 -0.0073702659  0.017313457 -0.031034132 -0.0069739577 -0.0064416424 
   64700   -1726435.3  0.008376573 -0.0073624621  0.017297511 -0.031026902 -0.0069683773 -0.0064369276 
   64800   -1726435.3 0.0083629561 -0.0073549939  0.017282272 -0.031019976 -0.0069630379 -0.0064324221 
   64900   -1726435.3 0.0083487815 -0.0073472003  0.017266391 -0.031012744 -0.0069574668 -0.0064277271 
   65000   -1726435.3  0.008335211 -0.0073397209  0.017251172 -0.031005797 -0.0069521212 -0.0064232279 
   65100   -1726435.3 0.0083211313 -0.0073319418  0.017235364 -0.030998566 -0.0069465623 -0.0064185551 
   65200   -1726435.3 0.0083075144 -0.0073243997  0.017220059 -0.030991549 -0.0069411738 -0.0064140313 
   65300   -1726435.3 0.0082938641 -0.0073168213  0.017204701 -0.030984494  -0.00693576 -0.006409492 
   65400   -1726435.3 0.0082801438 -0.0073091858  0.017189248 -0.030977379 -0.0069303063 -0.0064049249 
   65500   -1726435.3 0.0082662608 -0.0073014411  0.017173594 -0.030970156 -0.0069247753 -0.0064002991 
   65600   -1726435.3 0.0082526852 -0.0072938494  0.017158271 -0.030963071 -0.0069193546 -0.0063957712 
   65700   -1726435.3 0.0082391192 -0.0072862456  0.017142943 -0.030955968 -0.0069139258 -0.0063912421 
   65800   -1726435.3 0.0082251973 -0.0072784233  0.017127195 -0.030948656 -0.0069083419 -0.0063865895 
   65900   -1726435.3 0.0082118836 -0.0072709256   0.01711212  -0.03094164 -0.0069029902 -0.006382136 
   66000   -1726435.3 0.0081979841 -0.0072630795  0.017096365 -0.030934293 -0.0068973906 -0.006377482 
   66100   -1726435.3 0.0081846743 -0.0072555483  0.017081262 -0.030927235 -0.0068920164 -0.006373021 
   66200   -1726435.3 0.0081711161 -0.0072478593  0.017065862 -0.030920024 -0.0068865302 -0.0063684726 
   66300   -1726435.3 0.0081574161 -0.0072400714  0.017050283 -0.030912713 -0.0068809741 -0.006363872 
   66400   -1726435.3 0.0081441958 -0.0072325393  0.017035235 -0.030905636 -0.0068756009 -0.0063594284 
   66500   -1726435.3 0.0081303842 -0.0072246522  0.017019497  -0.03089822 -0.006869975 -0.0063547815 
   66600   -1726435.3 0.0081172727 -0.0072171474  0.017004541 -0.030891158 -0.0068646225 -0.006350366 
   66700   -1726435.3 0.0081036108 -0.0072093104  0.016988941 -0.030883776 -0.0068590334 -0.0063457608 
   66800   -1726435.3 0.0080904255 -0.0072017291  0.016973869  -0.03087663 -0.0068536272 -0.006341312 
   66900   -1726435.3 0.0080768186 -0.0071938882  0.016958299 -0.030869232 -0.0068480363 -0.0063367167 
   67000   -1726435.3 0.0080636958 -0.0071863089  0.016943267 -0.030862075 -0.0068426325 -0.0063322807 
   67100   -1726435.3 0.0080500664 -0.0071784198  0.016927639 -0.030854619 -0.006837008 -0.0063276693 
   67200   -1726435.3 0.0080370717 -0.007170881  0.016912723 -0.030847489 -0.0068316337 -0.0063232683 
   67300   -1726435.3 0.0080233673 -0.007162913  0.016896976 -0.030839946 -0.0068259538 -0.0063186228 
   67400   -1726435.3 0.0080105332 -0.0071554344  0.016882214  -0.03083286 -0.0068206232 -0.0063142683 
   67500   -1726435.3 0.0079969003 -0.0071474728  0.016866516  -0.03082531 -0.0068149486 -0.0063096384 
   67600   -1726435.3 0.0079840872 -0.007139974  0.016851748 -0.030818193 -0.006809604 -0.006305283 
   67700   -1726435.3 0.0079705868 -0.0071320554  0.016836171 -0.030810671 -0.0068039606 -0.0063006898 
   67800   -1726435.3 0.0079577176 -0.0071244911  0.016821307 -0.030803479 -0.0067985698 -0.0062963074 
   67900   -1726435.3 0.0079443873 -0.0071166384  0.016805894 -0.030796007 -0.0067929739 -0.0062917638 
   68000   -1726435.3 0.0079314684 -0.0071090122  0.016790942 -0.030788744 -0.0067875394 -0.0062873566 
   68100   -1726435.3 0.0079182394 -0.0071011857  0.016775615 -0.030781284 -0.0067819626 -0.0062828393 
   68200   -1726435.3 0.0079053074 -0.0070935193  0.016760617  -0.03077397 -0.0067764997 -0.0062784197 
   68300   -1726435.3 0.0078921933 -0.0070857279  0.016745391  -0.03076653 -0.0067709481 -0.0062739337 
   68400   -1726435.3 0.0078792395 -0.0070780159  0.016730337  -0.03075916 -0.0067654531 -0.0062694987 
   68500   -1726435.3  0.007866224 -0.0070702505  0.016715196 -0.030751733 -0.0067599203 -0.0062650386 
   68600   -1726435.3 0.0078532725 -0.0070625076  0.016700113  -0.03074432 -0.0067544034 -0.0062605965 
   68700   -1726435.3 0.0078403393 -0.007054759  0.016685036 -0.030736895 -0.0067488827 -0.0062561567 
   68800   -1726435.3 0.0078274266 -0.0070470071  0.016669969 -0.030729461 -0.0067433595 -0.0062517202 
   68900   -1726435.3 0.0078145561 -0.0070392642  0.016654934 -0.030722029 -0.0067378429 -0.0062472942 
   69000   -1726435.3 0.0078016633 -0.0070314924  0.016639859 -0.030714562 -0.0067323054 -0.0062428568 
   69100   -1726435.3 0.0077888923 -0.0070237779  0.016624911 -0.030707144 -0.006726809 -0.0062384574 
   69200   -1726435.3 0.0077759187 -0.0070159253   0.01660971 -0.030699587 -0.006721214 -0.0062339844 
   69300   -1726435.3  0.007763329 -0.0070082893  0.016594944 -0.030692231 -0.0067157734  -0.00622964 
   69400   -1726435.3 0.0077501471 -0.0070002782  0.016579467 -0.030684507 -0.0067100653 -0.0062250874 
   69500   -1726435.3 0.0077378051 -0.0069927622  0.016564962 -0.030677255  -0.00670471 -0.0062208212 
   69600   -1726435.3  0.007724791 -0.006984821  0.016549652 -0.030669585 -0.0066990516 -0.0062163187 
   69700   -1726435.3 0.0077123072 -0.0069771886  0.016534951 -0.030662206 -0.0066936129 -0.0062119962 
   69800   -1726435.3 0.0076995844 -0.0069693943  0.016519953 -0.030654665 -0.0066880589 -0.0062075872 
   69900   -1726435.3 0.0076867054 -0.006961489  0.016504756 -0.030647009 -0.0066824254 -0.0062031203 
   70000   -1726435.3 0.0076743791 -0.0069539076  0.016490196 -0.030639661 -0.0066770227 -0.0061988414 
   70100   -1726435.3 0.0076615041 -0.0069459733  0.016474973 -0.030631963 -0.0066713683 -0.0061943684 
   70200   -1726435.3 0.0076491972 -0.0069383746  0.016460407 -0.030624585 -0.0066659527 -0.0061900892 
   70300   -1726435.3 0.0076366025 -0.0069305833  0.016445486 -0.030617012 -0.0066603996 -0.0061857064 
   70400   -1726435.3 0.0076238386 -0.0069226714  0.016430349 -0.030609316 -0.0066547604 -0.0061812608 
   70500   -1726435.3 0.0076117318 -0.0069151528  0.016415976 -0.030601995 -0.0066494012 -0.0061770408 
   70600   -1726435.3 0.0075988197 -0.0069071187  0.016400633 -0.030594165 -0.0066436741 -0.0061725364 
   70700   -1726435.3 0.0075867606 -0.0068996009  0.016386289 -0.030586832 -0.0066383149 -0.006168326 
   70800   -1726435.3 0.0075741153 -0.0068917026  0.016371233 -0.030579121 -0.0066326841 -0.0061639074 
   70900   -1726435.3 0.0075615483 -0.0068838386  0.016356255 -0.030571436 -0.0066270772 -0.0061595127 
   71000   -1726435.3 0.0075492425 -0.0068761231  0.016341573  -0.03056389 -0.006621576 -0.0061552058 
   71100   -1726435.3 0.0075368279 -0.0068683248  0.016326747 -0.030556256 -0.0066160154 -0.0061508572 
   71200   -1726435.3 0.0075240862 -0.0068603057  0.016311515 -0.030548398 -0.0066102969 -0.0061463904 
   71300   -1726435.3 0.0075114983 -0.0068523688  0.016296452 -0.030540613 -0.0066046364 -0.0061419741 
   71400   -1726435.3  0.007499377 -0.0068447115  0.016281933 -0.030533096 -0.006599175 -0.0061377179 
   71500   -1726435.3  0.007487199 -0.0068370042  0.016267331 -0.030525523 -0.0065936775 -0.0061334385 
   71600   -1726435.3 0.0074748399 -0.006829168  0.016252498 -0.030517816 -0.0065880876 -0.006129092 
   71700   -1726435.3 0.0074621663 -0.0068211172  0.016237272 -0.030509891 -0.0065823441 -0.0061246313 
   71800   -1726435.3 0.0074501979 -0.006813501  0.016222879 -0.030502386 -0.0065769099 -0.0061204156 
   71900   -1726435.3 0.0074380711 -0.0068057696  0.016208281 -0.030494761 -0.0065713933 -0.0061161407 
   72000   -1726435.3 0.0074256155 -0.0067978141  0.016193272 -0.030486908 -0.0065657162 -0.0061117464 
   72100   -1726435.3 0.0074134162 -0.0067900085  0.016178558 -0.030479196 -0.0065601454 -0.0061074393 
   72200   -1726435.3 0.0074014982 -0.0067823689  0.016164169  -0.03047164 -0.0065546926 -0.0061032282 
   72300   -1726435.3 0.0073892184 -0.0067744833  0.016149329 -0.030463834 -0.0065490637 -0.0060988858 
   72400   -1726435.3   0.00737694 -0.0067665848  0.016134476 -0.030456008 -0.0065434247 -0.0060945407 
   72500   -1726435.3  0.007365162 -0.0067589943  0.016120214  -0.03044848 -0.0065380053 -0.0060903694 
   72600   -1726435.3 0.0073528035 -0.0067510157  0.016105234 -0.030440561 -0.0065323081 -0.0060859891 
   72700   -1726435.3  0.007341021 -0.0067433959  0.016090939 -0.030432989 -0.0065268663 -0.0060818099 
   72800   -1726435.3 0.0073289638 -0.0067355845  0.016076297 -0.030425221 -0.0065212871  -0.00607753 
   72900   -1726435.3 0.0073169191 -0.006727768  0.016061655  -0.03041744 -0.0065157035 -0.0060732514 
   73000   -1726435.3 0.0073051383 -0.0067201091   0.01604732 -0.030409809 -0.0065102319 -0.0060690633 
   73100   -1726435.3 0.0072927968 -0.0067120715  0.016032288 -0.030401793 -0.0065044892 -0.0060646725 
   73200   -1726435.3  0.007281212 -0.0067045144  0.016018165 -0.030394249 -0.0064990888 -0.006060548 
   73300   -1726435.3 0.0072693162 -0.0066967406  0.016003648 -0.030386482 -0.006493533 -0.0060563095 
   73400   -1726435.3 0.0072570897 -0.006688737  0.015988712 -0.030378477 -0.0064878122 -0.0060519499 
   73500   -1726435.3 0.0072453733 -0.0066810546  0.015974387 -0.030370786 -0.0064823201 -0.0060477692 
   73600   -1726435.3 0.0072336978 -0.0066733856  0.015960097 -0.030363102 -0.006476837 -0.0060435999 
   73700   -1726435.3 0.0072214802 -0.0066653469  0.015945129  -0.03035504 -0.0064710887 -0.0060392339 
   73800   -1726435.3 0.0072100807 -0.0066578342  0.015931151 -0.030347497 -0.0064657157 -0.0060351573 
   73900   -1726435.3 0.0071982504 -0.0066500243  0.015916629  -0.03033965 -0.0064601294 -0.0060309235 
   74000   -1726435.3 0.0071863206 -0.006642136  0.015901972 -0.030331716 -0.006454486 -0.0060266511 
   74100   -1726435.3 0.0071748764 -0.0066345556  0.015887898 -0.030324084 -0.0064490624 -0.0060225495 
   74200   -1726435.3 0.0071628583 -0.0066265821  0.015873104 -0.030316049 -0.0064433565 -0.0060182392 
   74300   -1726435.3 0.0071514192 -0.0066189805  0.015859009 -0.030308382 -0.0064379158 -0.0060141336 
   74400   -1726435.3 0.0071397627 -0.0066112214  0.015844633 -0.030300548 -0.0064323617 -0.006009947 
   74500   -1726435.3 0.0071278425 -0.0066032742  0.015829917 -0.030292517 -0.0064266717 -0.0060056626 
   74600   -1726435.3 0.0071165249 -0.006595716  0.015815932 -0.030284871 -0.0064212596 -0.0060015919 
   74700   -1726435.3 0.0071048752 -0.0065879235  0.015801522 -0.030276981 -0.0064156788 -0.0059973988 
   74800   -1726435.3 0.0070929042 -0.0065799032  0.015786702 -0.030268853 -0.0064099339 -0.005993087 
   74900   -1726435.3 0.0070817334 -0.0065724068  0.015772858 -0.030261248 -0.0064045633 -0.0059890606 
   75000   -1726435.3 0.0070701737 -0.0065646372  0.015758519 -0.030253359 -0.006398996 -0.0059848911 
   75100   -1726435.3 0.0070582804 -0.0065566302  0.015743752 -0.030245221 -0.0063932577 -0.0059805982 
   75200   -1726435.3 0.0070469616 -0.0065489983  0.015729685 -0.030237456 -0.0063877871 -0.0059765099 
   75300   -1726435.3 0.0070356449 -0.0065413554  0.015715608 -0.030229673 -0.0063823078 -0.0059724195 
   75400   -1726435.3 0.0070239737 -0.0065334606  0.015701075 -0.030221626 -0.0063766469 -0.0059681981 
   75500   -1726435.3 0.0070121363 -0.0065254409  0.015686322 -0.030213443 -0.0063708952 -0.0059639136 
   75600   -1726435.3 0.0070010697 -0.0065179313  0.015672516 -0.030205773 -0.0063655085 -0.0059599052 
   75700   -1726435.3 0.0069896665 -0.0065101814  0.015658276 -0.030197851 -0.0063599483 -0.0059557722 
   75800   -1726435.3 0.0069781663 -0.0065023533  0.015643902 -0.030189841 -0.0063543311 -0.0059516011 
   75900   -1726435.3 0.0069664204 -0.0064943453  0.015629207 -0.030181638 -0.0063485836 -0.005947338 
   76000   -1726435.3 0.0069554251 -0.006486838  0.015615438 -0.030173941 -0.0063431942 -0.0059433447 
[...]
  193100   -1726435.3 0.0010643001 -0.0010376941 0.0051722454 -0.020823345 -0.0016390108 -0.0033727578 
  193200   -1726435.3 0.0010625424 -0.0010356616  0.005167153 -0.020816708 -0.0016366823 -0.0033716677 
  193300   -1726435.3 0.0010607881 -0.0010336328 0.0051620673 -0.020810077 -0.0016343571 -0.003370579 
  193400   -1726435.3 0.0010590449 -0.0010316165 0.0051570104 -0.020803481 -0.0016320453 -0.0033694964 
  193500   -1726435.3 0.0010572921 -0.0010295887 0.0051519222  -0.02079684 -0.0016297195 -0.0033684069 
  193600   -1726435.3  0.001055552 -0.0010275754 0.0051468679 -0.020790241 -0.0016274095 -0.0033673247 
  193700   -1726435.3 0.0010538128 -0.0010255626 0.0051418129 -0.020783638 -0.0016250994 -0.0033662422 
  193800   -1726435.3 0.0010520686 -0.0010235439 0.0051367401  -0.02077701 -0.0016227814 -0.0033651558 
  193900   -1726435.3 0.0010503393 -0.001021542 0.0051317071  -0.02077043 -0.0016204819 -0.0033640779 
  194000   -1726435.3 0.0010486033 -0.001019532 0.0051266518 -0.020763818 -0.0016181725 -0.003362995 
  194100   -1726435.3 0.0010468727 -0.001017528 0.0051216087 -0.020757219 -0.0016158689 -0.0033619148 
  194200   -1726435.3  0.001045149 -0.0010155318 0.0051165823 -0.020750639 -0.0016135731 -0.003360838 
  194300   -1726435.3 0.0010434187 -0.0010135277 0.0051115335 -0.020744027 -0.0016112674 -0.0033597563 
  194400   -1726435.3 0.0010417017 -0.0010115386 0.0051065202 -0.020737458 -0.001608978 -0.0033586821 
  194500   -1726435.3 0.0010399815 -0.0010095454 0.0051014941  -0.02073087 -0.0016066832 -0.0033576051 
  194600   -1726435.3 0.0010382613 -0.0010075517 0.0050964647 -0.020724274 -0.001604387 -0.0033565273 
  194700   -1726435.3  0.001036553 -0.0010055714 0.0050914665 -0.020717716 -0.0016021054 -0.0033554561 
  194800   -1726435.3  0.001034837 -0.001003582 0.0050864428 -0.020711123 -0.0015998125 -0.0033543794 
  194900   -1726435.3 0.0010331305 -0.0010016032 0.0050814436 -0.020704558 -0.0015975309 -0.0033533078 
  195000   -1726435.3 0.0010314266 -0.00099962698 0.0050764486 -0.020697996 -0.0015952516 -0.0033522371 
  195100   -1726435.3 0.0010297182 -0.00099764524 0.0050714371 -0.020691409 -0.001592965 -0.0033511627 
  195200   -1726435.3  0.001028023 -0.0009956784 0.0050664611 -0.020684866 -0.0015906948 -0.0033500959 
  195300   -1726435.3 0.0010263221 -0.00099370466 0.0050614651 -0.020678294 -0.0015884159 -0.0033490246 
  195400   -1726435.3 0.0010246268 -0.00099173703 0.0050564821 -0.020671736 -0.0015861431 -0.0033479561 
  195500   -1726435.3 0.0010229373 -0.00098977581 0.0050515131 -0.020665194 -0.001583877 -0.0033468905 
  195600   -1726435.3 0.0010212421 -0.00098780759 0.0050465239 -0.020658622 -0.0015816019 -0.0033458205 
  195700   -1726435.3  0.001019559 -0.00098585319 0.0050415673  -0.02065209 -0.001579342 -0.0033447573 
  195800   -1726435.3 0.0010178739 -0.00098389594 0.0050366012 -0.020645543 -0.001577078 -0.0033436921 
  195900   -1726435.3 0.0010161877 -0.00098193724 0.0050316289 -0.020638985 -0.0015748114 -0.0033426254 
  196000   -1726435.3 0.0010145129 -0.00097999141 0.0050266869 -0.020632464 -0.001572559 -0.0033415651 
  196100   -1726435.3 0.0010128333 -0.00097803963 0.0050217274 -0.020625916 -0.0015702988 -0.003340501 
  196200   -1726435.3 0.0010111574 -0.00097609195 0.0050167758 -0.020619377 -0.0015680425 -0.0033394385 
  196300   -1726435.3 0.0010094898 -0.00097415348 0.0050118453 -0.020612862 -0.0015657961 -0.0033383804 
  196400   -1726435.3 0.0010078166 -0.00097220822 0.0050068953 -0.020606319 -0.0015635411 -0.003337318 
  196500   -1726435.3 0.0010061507 -0.00097027108 0.0050019634 -0.020599797 -0.0015612946 -0.0033362594 
  196600   -1726435.3 0.0010044898 -0.0009683394 0.0049970431 -0.020593287 -0.0015590536 -0.0033352032 
  196700   -1726435.3  0.001002824 -0.00096640168  0.004992105 -0.020586751 -0.0015568049 -0.0033341431 
  196800   -1726435.3 0.0010011674 -0.0009644745 0.0049871913 -0.020580244 -0.0015545675 -0.0033330882 
  196900   -1726435.3 0.00099951186 -0.00096254798 0.0049822771 -0.020573734 -0.0015523301 -0.003332033 
  197000   -1726435.3  0.000997856 -0.00096062091  0.004977359 -0.020567216 -0.0015500913 -0.0033309769 
  197100   -1726435.3 0.00099620644 -0.00095870079 0.0049724564 -0.020560715 -0.0015478597 -0.003329924 
  197200   -1726435.3 0.0009945582 -0.00095678183 0.0049675544 -0.020554212 -0.0015456287 -0.0033288711 
  197300   -1726435.3 0.00099291119 -0.00095486399 0.0049626529 -0.020547707 -0.0015433982 -0.0033278183 
  197400   -1726435.3 0.00099126968 -0.00095295225 0.0049577646 -0.020541217 -0.001541174 -0.0033267681 
  197500   -1726435.3 0.00098962759 -0.00095103952 0.0049528714 -0.020534718 -0.0015389478 -0.0033257169 
  197600   -1726435.3 0.00098798982 -0.00094913155 0.0049479879 -0.020528228 -0.0015367264 -0.0033246676 
  197700   -1726435.3 0.00098635483 -0.00094722653 0.0049431094 -0.020521742 -0.0015345075 -0.0033236193 
  197800   -1726435.3 0.00098472144 -0.00094532309 0.0049382327 -0.020515256 -0.0015322896 -0.0033225712 
  197900   -1726435.3 0.00098309156 -0.00094342327  0.004933363 -0.020508777 -0.0015300753 -0.0033215246 
  198000   -1726435.3 0.00098146452 -0.00094152664 0.0049284989 -0.020502302 -0.0015278638 -0.003320479 
  198100   -1726435.3 0.00097983772 -0.00093962987 0.0049236322  -0.02049582 -0.0015256513 -0.0033194328 
  198200   -1726435.3 0.0009782168 -0.0009377398 0.0049187801 -0.020489356 -0.0015234458 -0.0033183897 
  198300   -1726435.3 0.00097659509 -0.00093584832 0.0049139222  -0.02048288 -0.0015212379 -0.0033173452 
  198400   -1726435.3 0.00097497611 -0.00093395983 0.0049090695 -0.020476409 -0.0015190327 -0.0033163017 
  198500   -1726435.3 0.0009733639 -0.00093207881 0.0049042338 -0.020469958 -0.0015168354 -0.0033152617 
  198600   -1726435.3 0.00097174431 -0.00093018895  0.004899373  -0.02046347 -0.001514627 -0.0033142162 
  198700   -1726435.3 0.00097014021 -0.00092831685 0.0048945554 -0.020457037 -0.0015124386 -0.0033131799 
  198800   -1726435.3 0.00096852628 -0.00092643286 0.0048897051 -0.020450558 -0.0015102355 -0.0033121365 
  198900   -1726435.3 0.00096692437 -0.00092456273 0.0048848879  -0.02044412 -0.0015080478   -0.0033111 
  199000   -1726435.3 0.0009653198 -0.00092268904 0.0048800593 -0.020437664 -0.0015058551 -0.003310061 
  199100   -1726435.3 0.00096371524 -0.00092081528 0.0048752279 -0.020431202 -0.0015036615 -0.0033090213 
  199200   -1726435.3 0.00096212313 -0.00091895558 0.0048704307 -0.020424782 -0.0015014837 -0.0033079889 
  199300   -1726435.3 0.00096051647 -0.00091707857 0.0048655865 -0.020418297 -0.0014992848 -0.0033069462 
  199400   -1726435.3 0.00095892989 -0.00091522487 0.0048607998 -0.020411886 -0.0014971123 -0.0033059157 
  199500   -1726435.3 0.00095733927 -0.00091336599 0.0048559977 -0.020405451 -0.001494933 -0.0033048819 
  199600   -1726435.3 0.00095573963 -0.00091149628 0.0048511652 -0.020398973 -0.0014927403 -0.0033038413 
  199700   -1726435.3 0.0009541576 -0.00090964696 0.0048463829 -0.020392559 -0.0014905706 -0.0033028115 
  199800   -1726435.3 0.00095257805 -0.00090780009 0.0048416049 -0.020386148 -0.0014884031 -0.0033017825 
  199900   -1726435.3 0.00095099014 -0.00090594311 0.0048367983 -0.020379697 -0.001486223 -0.0033007472 
  200000   -1726435.3 0.00094940123 -0.0009040848 0.0048319858 -0.020373234 -0.0014840405 -0.0032997105 
  200100   -1726435.3 0.00094783085 -0.00090224787 0.0048272263  -0.02036684 -0.0014818822 -0.0032986851 
  200200   -1726435.3 0.0009462602 -0.00090041022 0.0048224628 -0.020360437 -0.0014797224 -0.0032976587 
  200300   -1726435.3 0.00094468231 -0.00089856375 0.0048176741 -0.020353998 -0.0014775515 -0.0032966268 
  200400   -1726435.3 0.00094310309 -0.00089671552 0.0048128784 -0.020347547 -0.0014753777 -0.0032955932 
  200500   -1726435.3 0.0009415414 -0.00089488756 0.0048081329  -0.02034116 -0.001473227 -0.0032945703 
  200600   -1726435.3 0.00093998098 -0.00089306066  0.004803388 -0.020334772 -0.0014710767 -0.0032935475 
  200700   -1726435.3 0.00093841429 -0.00089122608 0.0047986208  -0.02032835 -0.0014689167 -0.0032925197 
  200800   -1726435.3 0.00093684438 -0.00088938758  0.004793841 -0.020321909 -0.0014667512 -0.0032914891 
  200900   -1726435.3 0.00093529048 -0.00088756758 0.0047891068 -0.020315527 -0.0014646067 -0.0032904682 
  201000   -1726435.3 0.00093374064 -0.00088575184 0.0047843817 -0.020309154 -0.0014624666 -0.0032894491 
  201100   -1726435.3 0.00093218443 -0.00088392834 0.0047796341 -0.020302748 -0.0014603165 -0.003288425 
  201200   -1726435.3 0.00093062437 -0.00088210013 0.0047748718 -0.020296319 -0.0014581601 -0.0032873977 
  201300   -1726435.3 0.00092908037 -0.0008802905 0.0047701555 -0.020289949 -0.0014560248 -0.0032863801 
  201400   -1726435.3 0.00092754001 -0.0008784847 0.0047654471 -0.020283588 -0.0014538933 -0.0032853641 
  201500   -1726435.3 0.00092599227 -0.00087666992  0.004760713 -0.020277188 -0.0014517505 -0.0032843424 
  201600   -1726435.3 0.0009244427 -0.00087485285 0.0047559703 -0.020270775 -0.0014496041 -0.0032833188 
  201700   -1726435.3 0.00092291069 -0.00087305608 0.0047512784 -0.020264428 -0.0014474809 -0.003282306 
  201800   -1726435.3 0.00092137798 -0.00087125808 0.0047465811  -0.02025807 -0.0014453556 -0.0032812919 
  201900   -1726435.3 0.00091983833 -0.00086945163 0.0047418595 -0.020251676 -0.0014432196 -0.0032802724 
  202000   -1726435.3 0.00091830003 -0.00086764665 0.0047371391 -0.020245282 -0.0014410844 -0.003279253 
  202100   -1726435.3 0.00091677833 -0.00086586076 0.0047324665  -0.02023895 -0.0014389711 -0.0032782439 
  202200   -1726435.3 0.00091525455 -0.00086407208 0.0047277844 -0.020232602 -0.0014368538 -0.0032772325 
  202300   -1726435.3 0.00091372448 -0.0008622757 0.0047230799  -0.02022622 -0.0014347266 -0.0032762162 
  202400   -1726435.3 0.00091219375 -0.0008604784 0.0047183704 -0.020219829 -0.0014325975 -0.0032751987 
  202500   -1726435.3 0.00091067818 -0.00085869864 0.0047137046 -0.020213495 -0.0014304884 -0.0032741904 
  202600   -1726435.3 0.00090916658 -0.00085692313 0.0047090478  -0.02020717 -0.0014283836 -0.003273184 
  202700   -1726435.3 0.00090764985 -0.00085514129 0.0047043721 -0.020200817 -0.0014262706 -0.0032721734 
  202800   -1726435.3 0.00090612921 -0.00085335457 0.0046996813 -0.020194441 -0.0014241511 -0.0032711594 
  202900   -1726435.3 0.00090461249 -0.00085157226 0.0046949998 -0.020188074 -0.001422036 -0.0032701472 
  203000   -1726435.3 0.00090311034 -0.00084980683 0.0046903602 -0.020181762 -0.0014199402 -0.0032691439 
  203100   -1726435.3 0.00090160878 -0.00084804165 0.0046857191 -0.020175445 -0.0014178439 -0.0032681403 
  203200   -1726435.3 0.00090010239 -0.00084627047 0.0046810601   -0.0201691 -0.0014157399 -0.0032671325 
  203300   -1726435.3 0.00089859277 -0.0008444953 0.0046763882 -0.020162736 -0.0014136303 -0.0032661219 
  203400   -1726435.3 0.00089709213 -0.0008427305 0.0046717411 -0.020156402 -0.0014115322 -0.0032651165 
  203500   -1726435.3 0.00089560307 -0.00084097897 0.0046671268 -0.020150111 -0.0014094492 -0.003264118 
  203600   -1726435.3 0.0008941094 -0.00083922167 0.0046624951 -0.020143793 -0.0014073586 -0.0032631157 
  203700   -1726435.3 0.00089261007 -0.00083745739 0.0046578428 -0.020137444 -0.001405259 -0.0032621087 
  203800   -1726435.3 0.00089111657 -0.00083569987 0.0046532059 -0.020131113 -0.0014031666 -0.0032611049 
  203900   -1726435.3 0.00088963673 -0.00083395807 0.0046486082 -0.020124833 -0.0014010922 -0.0032601095 
  204000   -1726435.3 0.00088815362 -0.00083221206 0.0046439972 -0.020118532 -0.0013990122 -0.0032591111 
  204100   -1726435.3 0.00088666471 -0.00083045893 0.0046393652   -0.0201122 -0.0013969229 -0.0032581079 
  204200   -1726435.3 0.00088517764 -0.00082870779  0.004634736 -0.020105869 -0.0013948351 -0.0032571053 
  204300   -1726435.3 0.00088370577 -0.0008269743 0.0046301512 -0.020099596 -0.0013927677 -0.0032561121 
  204400   -1726435.3 0.00088223414 -0.00082524071  0.004625564 -0.020093317 -0.0013906995 -0.0032551182 
  204500   -1726435.3 0.00088075714 -0.00082350044  0.004620957 -0.020087008 -0.0013886226 -0.0032541199 
  204600   -1726435.3 0.00087927723 -0.00082175655  0.004616338  -0.02008068 -0.0013865406 -0.0032531188 
  204700   -1726435.3 0.00087780994 -0.00082002739 0.0046117556   -0.0200744 -0.0013844754 -0.0032521256 
  204800   -1726435.3 0.00087634978 -0.00081830621 0.0046071923 -0.020068142 -0.001382419 -0.0032511363 
  204900   -1726435.3 0.00087488503 -0.00081657927 0.0046026116 -0.020061859 -0.0013803551 -0.0032501431 
  205000   -1726435.3 0.00087341547 -0.00081484643 0.0045980129 -0.020055547 -0.0013782834 -0.0032491459 
  205100   -1726435.3 0.00087195105 -0.00081311955 0.0045934275 -0.020049252 -0.001376218 -0.0032481514 
  205200   -1726435.3 0.00087050051 -0.00081140867 0.0045888825 -0.020043009 -0.001374171 -0.0032471655 
  205300   -1726435.3 0.00086904797 -0.00080969509 0.0045843281  -0.02003675 -0.0013721202 -0.0032461774 
  205400   -1726435.3 0.00086759094 -0.00080797593 0.0045797567 -0.020030466 -0.0013700619 -0.0032451855 
  205500   -1726435.3 0.00086613161 -0.00080625379 0.0045751751 -0.020024165 -0.0013679993 -0.0032441912 
  205600   -1726435.3 0.0008646829 -0.00080454406 0.0045706241 -0.020017903 -0.0013659508 -0.0032432034 
  205700   -1726435.3 0.0008632433 -0.00080284468 0.0045660986 -0.020011673 -0.0013639141 -0.003242221 
  205800   -1726435.3 0.00086180006 -0.00080114069 0.0045615586 -0.020005421 -0.0013618711 -0.0032412353 
  205900   -1726435.3 0.00086035183 -0.00079943055     0.004557  -0.01999914  -0.00135982 -0.0032402454 
  206000   -1726435.3 0.00085890554 -0.00079772248 0.0045524446 -0.019992862 -0.0013577707 -0.003239256 
  206100   -1726435.3 0.00085747447 -0.00079603217 0.0045479342 -0.019986642 -0.0013557419 -0.0032382763 
  206200   -1726435.3 0.00085604299 -0.00079434098 0.0045434195 -0.019980414 -0.0013537114 -0.0032372954 
  206300   -1726435.3 0.00085460618 -0.0007926432 0.0045388849 -0.019974156 -0.0013516723 -0.0032363101 
  206400   -1726435.3 0.00085316705 -0.00079094244 0.0045343401 -0.019967881 -0.0013496289 -0.0032353224 
  206500   -1726435.3 0.00085174195 -0.00078925815 0.0045298369 -0.019961661 -0.0013476045 -0.0032343437 
  206600   -1726435.3 0.00085032156 -0.00078757893 0.0045253454 -0.019955454 -0.0013455856 -0.0032333672 
  206700   -1726435.3 0.00084889527 -0.00078589252 0.0045208323 -0.019949214 -0.0013435573 -0.003232386 
  206800   -1726435.3 0.00084746484 -0.00078420094 0.0045163032  -0.01994295 -0.001341522 -0.003231401 
  206900   -1726435.3 0.00084604661 -0.00078252372   0.00451181 -0.019936733 -0.0013395033 -0.0032304238 
  207000   -1726435.3 0.0008446355 -0.00078085448 0.0045073362  -0.01993054 -0.0013374935 -0.0032294506 
  207100   -1726435.3 0.00084321905 -0.0007791786 0.0045028425 -0.019924317 -0.0013354751 -0.0032284729 
  207200   -1726435.3 0.00084179852 -0.00077749766  0.004498333 -0.019918069 -0.0013334498 -0.0032274917 
  207300   -1726435.3 0.00084038542 -0.00077582543 0.0044938443 -0.019911847 -0.0013314342 -0.0032265148 
  207400   -1726435.3 0.00083898355 -0.00077416607 0.0044893883 -0.019905668 -0.0013294335 -0.0032255448 
  207500   -1726435.3 0.00083757855 -0.00077250267 0.0044849192 -0.019899469 -0.0013274273 -0.0032245718 
  207600   -1726435.3 0.00083616838 -0.00077083295 0.0044804309 -0.019893239 -0.0013254127 -0.0032235945 
  207700   -1726435.3 0.00083475924 -0.00076916429  0.004475943 -0.019887008 -0.0013233987 -0.0032226171 
  207800   -1726435.3 0.00083336506 -0.00076751307 0.0044714999 -0.019880836 -0.001321405 -0.0032216494 
  207900   -1726435.3 0.0008319714 -0.00076586207 0.0044670554  -0.01987466 -0.0013194109 -0.0032206811 
  208000   -1726435.3 0.00083057254 -0.00076420461 0.0044625914 -0.019868454 -0.0013174084 -0.0032197084 
  208100   -1726435.3 0.00082917096 -0.00076254375 0.0044581158 -0.019862229 -0.001315401 -0.003218733 
  208200   -1726435.3 0.00082777937 -0.00076089457 0.0044536694 -0.019856042 -0.0013134069 -0.0032177639 
  208300   -1726435.3 0.00082639645 -0.00075925529 0.0044492477 -0.019849887 -0.0013114242 -0.0032167999 
  208400   -1726435.3 0.00082501059 -0.00075761221 0.0044448135 -0.019843712 -0.0013094363 -0.0032158331 
  208500   -1726435.3 0.00082362014 -0.00075596341 0.0044403618 -0.019837509 -0.0013074407 -0.0032148623 
  208600   -1726435.3 0.00082223027 -0.00075431517 0.0044359092 -0.019831303 -0.0013054451 -0.0032138911 
  208700   -1726435.3 0.00082085518 -0.00075268423 0.0044315012 -0.019825156 -0.0013034697 -0.0032129295 
  208800   -1726435.3 0.00081948082 -0.00075105378 0.0044270924 -0.019819006 -0.0013014942 -0.0032119675 
  208900   -1726435.3 0.00081810199 -0.00074941775 0.0044226664 -0.019812829 -0.0012995113 -0.0032110016 
  209000   -1726435.3 0.00081671957 -0.00074777722 0.0044182259 -0.019806629 -0.0012975223 -0.0032100324 
  209100   -1726435.3 0.00081534768 -0.0007461491 0.0044138167  -0.01980047 -0.0012955475 -0.0032090698 
  209200   -1726435.3 0.00081398397 -0.00074453027 0.0044094306 -0.019794341 -0.0012935834 -0.0032081122 
  209300   -1726435.3 0.00081261684 -0.00074290701 0.0044050306 -0.019788189 -0.0012916133 -0.0032071513 
  209400   -1726435.3 0.00081124512 -0.00074127813  0.004400613  -0.01978201 -0.0012896356 -0.0032061863 
  209500   -1726435.3 0.00080987552 -0.00073965163 0.0043961995 -0.019775835 -0.0012876601 -0.0032052222 
  209600   -1726435.3 0.00080851959 -0.00073804112 0.0043918273 -0.019769714 -0.0012857033 -0.0032042668 
  209700   -1726435.3 0.00080716453 -0.00073643125 0.0043874547 -0.019763591 -0.0012837467 -0.0032033113 
  209800   -1726435.3 0.0008058048 -0.0007348156 0.0043830643  -0.01975744 -0.0012817824 -0.0032023516 
  209900   -1726435.3 0.00080444166 -0.00073319564   0.00437866 -0.019751266 -0.0012798121 -0.0032013887 
  210000   -1726435.3 0.00080308799 -0.00073158684 0.0043742837  -0.01974513 -0.0012778547 -0.0032004318 
  210100   -1726435.3 0.00080174374 -0.00072998883 0.0043699347 -0.019739029 -0.0012759098 -0.0031994807 
  210200   -1726435.3 0.00080039542 -0.00072838566 0.0043655697 -0.019732903 -0.0012739579 -0.0031985259 
  210300   -1726435.3 0.00079904283 -0.00072677719  0.004361188 -0.019726751 -0.001271999 -0.0031975673 
  210400   -1726435.3 0.00079769278 -0.00072517159 0.0043568118 -0.019720604 -0.0012700428 -0.0031966097 
  210500   -1726435.3 0.00079635683 -0.00072358249 0.0043524785 -0.019714514 -0.001268106 -0.0031956613 
  210600   -1726435.3 0.00079501908 -0.00072199091 0.0043481364  -0.01970841 -0.0012661656 -0.0031947108 
  210700   -1726435.3 0.00079367625 -0.00072039301 0.0043437749 -0.019702275 -0.0012642168 -0.0031937559 
  210800   -1726435.3 0.00079233296 -0.00071879443 0.0043394092 -0.019696133 -0.0012622664 -0.0031927999 
  210900   -1726435.3 0.00079100405 -0.00071721274 0.0043350875 -0.019690049 -0.001260336 -0.0031918533 
  211000   -1726435.3 0.00078967601 -0.0007156317 0.0043307656 -0.019683963 -0.0012584058 -0.0031909065 
  211100   -1726435.3 0.00078834369 -0.00071404532  0.004326427  -0.01967785 -0.0012564684 -0.0031899559 
  211200   -1726435.3 0.00078700814 -0.00071245483 0.0043220749 -0.019671716 -0.0012545253 -0.0031890022 
  211300   -1726435.3 0.00078568078 -0.00071087408 0.0043177471 -0.019665613 -0.0012525933 -0.0031880536 
  211400   -1726435.3 0.00078436297 -0.0007093043 0.0043134473 -0.019659548 -0.0012506741 -0.0031871109 
  211500   -1726435.3 0.00078304296 -0.00070773157 0.0043091375 -0.019653465 -0.0012487507 -0.0031861659 
  211600   -1726435.3 0.00078171911 -0.00070615404 0.0043048124 -0.019647359 -0.0012468208 -0.0031852173 
  211700   -1726435.3 0.00078039344 -0.00070457411 0.0043004784 -0.019641237 -0.0012448872 -0.0031842667 
  211800   -1726435.3 0.0007790799 -0.00070300855 0.0042961816 -0.019635165 -0.0012429705 -0.0031833239 
  211900   -1726435.3 0.00077777213 -0.00070144915    0.0042919 -0.019629112 -0.0012410609 -0.0031823844 
  212000   -1726435.3 0