LAMMPS (22 Aug 2018)
Processor partition = 5
Reading data file ...
  orthogonal box = (0 0 0) to (170 170 379.205)
  1 by 1 by 1 MPI processor grid
  reading atoms ...
  443580 atoms
Reading potential file /home/yzhang951/Au_Al/Au_u3.eam with DATE: 2007-06-11
WARNING: Using 'neigh_modify every 1 delay 0 check yes' setting during minimization (../min.cpp:168)
Neighbor list info ...
  update every 1 steps, delay 0 steps, check yes
  max neighbors/atom: 2000, page size: 100000
  master list distance cutoff = 7.55
  ghost atom cutoff = 7.55
  binsize = 3.775, bins = 46 46 101
  1 neighbor lists, perpetual/occasional/extra = 1 0 0
  (1) pair eam, perpetual
      attributes: half, newton on
      pair build: half/bin/atomonly/newton
      stencil: half/bin/3d/newton
      bin: standard
Setting up quickmin style minimization ...
  Unit style    : metal
  Current step  : 0
Per MPI rank memory allocation (min/avg/max) = 232.7 | 232.7 | 232.7 Mbytes
Step TotEng Pxx Pyy Pzz Pxy Pyz Pxz 
       0     -1723730    1232.1415    1412.7652    1362.0794    -356.8248     41.59832   -78.425769 
     100   -1725894.2    233.87851    327.35218    230.30611   -296.47709   -3.5700595   -56.052529 
     200   -1726029.3    160.99649    213.98614    145.86534   -307.33264   -19.502621   -63.974005 
     300   -1726100.9     122.1951    155.34118    103.30892   -315.25558   -28.323937   -70.256831 
     400   -1726176.3     94.61109    122.68571    78.871738   -320.06306    -31.38475   -72.569882 
     500   -1726198.8    79.972188    105.06766     65.53982   -321.75391   -31.855386   -73.276503 
     600   -1726215.3    69.057683    93.837568    56.361325   -322.33744   -30.938231   -72.720813 
     700   -1726238.7     59.96399    86.615159    49.766069   -322.51403   -29.617147   -71.492151 
     800   -1726246.5     54.21157    82.876273    45.595846   -322.04393   -28.089109   -70.130349 
     900   -1726259.3    48.433555    80.138208    41.949343   -321.46322   -26.520163    -68.46669 
    1000   -1726264.3    44.690804    79.079786    39.800012   -320.68798   -25.136032   -66.945178 
    1100   -1726268.6    41.372226    78.690811    38.102282   -319.85628   -23.764057   -65.304409 
    1200   -1726276.5    37.900101    78.387567    36.415849   -319.05946   -22.503332   -63.563605 
    1300   -1726279.7    35.521094     78.65167    35.355899   -318.30436   -21.478248   -62.044972 
    1400   -1726282.4    33.398888    79.146898     34.47956   -317.56814   -20.520067   -60.472654 
    1500   -1726287.2    31.137261    79.521255    33.570784   -316.87196   -19.651439   -58.870689 
    1600   -1726289.3    29.477583    80.130137    33.062644   -316.21767   -18.947209    -57.43425 
    1700   -1726291.3    27.872444    80.788476     32.62916   -315.55478   -18.307705   -55.969294 
    1800     -1726295    26.138456    81.330227    32.136654   -314.94183   -17.742982   -54.500247 
    1900   -1726296.4    24.880516    81.963002    31.923551   -314.41247   -17.282067   -53.238082 
    2000   -1726297.7     23.61615    82.612269    31.754412   -313.88592   -16.843308    -51.95165 
    2100   -1726299.1    22.354649    83.224296    31.566248    -313.3822   -16.423335   -50.657969 
    2200   -1726301.3    21.117774    83.708675      31.3219   -312.99037   -16.081337   -49.524007 
    2300   -1726302.3    20.045492    84.292256    31.147511   -312.59217   -15.746091   -48.415643 
    2400   -1726303.9    18.881545    84.810949    30.863944   -312.21441   -15.411194   -47.288123 
    2500   -1726304.9    17.886541    85.287742    30.644965   -311.87718   -15.116999   -46.322553 
    2600   -1726305.7    16.891268    85.815689    30.406444   -311.53429   -14.819491   -45.346889 
    2700   -1726306.4    15.929676    86.358704    30.134917   -311.17211   -14.509822   -44.355197 
    2800   -1726307.9    14.931335     86.72013    29.759734   -310.84423   -14.232709   -43.434078 
    2900   -1726308.6    14.041444    87.128835    29.447943   -310.51002   -13.958026   -42.552527 
    3000   -1726309.1    13.168747    87.521167    29.115438   -310.14539   -13.673533   -41.655902 
    3100   -1726310.3      12.2511    87.810067    28.708739   -309.80712   -13.409078   -40.807863 
    3200   -1726310.8    11.427423    88.093887    28.359771   -309.46699   -13.155695   -40.006584 
    3300   -1726311.2    10.577294    88.365695    27.977249   -309.09843   -12.895518   -39.193683 
    3400   -1726312.2    9.7121982    88.536605    27.523024    -308.7439    -12.65662   -38.420462 
    3500   -1726312.7    8.9265739    88.701063    27.127938   -308.37347   -12.426603   -37.690497 
    3600   -1726313.1    8.0955275    88.840347    26.718859   -307.97327   -12.194077    -36.94402 
    3700   -1726313.9    7.2557067    88.899288    26.273214   -307.58827   -11.978849   -36.246207 
    3800   -1726314.3    6.4739036    88.962638    25.877197   -307.19877   -11.751657    -35.57264 
    3900   -1726314.7    5.6944664    89.000893    25.454465   -306.78593   -11.521715   -34.879458 
    4000   -1726315.5    4.9220484     88.98921    25.019748   -306.39333   -11.317442   -34.259063 
    4100   -1726315.8    4.2138587    88.978413    24.614457   -305.99175   -11.114199   -33.660022 
    4200   -1726316.2    3.4973928    88.933713    24.198458   -305.56889   -10.902864   -33.059788 
    4300   -1726316.9    2.7577734    88.834423     23.74782   -305.15265    -10.70525   -32.475644 
    4400   -1726317.2    2.0890845    88.728158    23.349869   -304.74053   -10.520225   -31.945622 
    4500   -1726317.5    1.3879904    88.591331    22.936231   -304.28955   -10.322411   -31.400771 
    4600     -1726318   0.66364758     88.41481    22.482523   -303.83951   -10.116569   -30.854624 
    4700   -1726318.3 0.0019152511    88.243533    22.067169   -303.40892   -9.9270196   -30.350986 
    4800   -1726318.6  -0.66671211    88.044708    21.648637   -302.95022   -9.7320628    -29.84698 
    4900   -1726319.1   -1.3976535    87.785745    21.198371   -302.46105   -9.5355537   -29.334985 
    5000   -1726319.4    -2.037773    87.545067    20.809183   -301.99581   -9.3604232   -28.866306 
    5100   -1726319.6   -2.7136352    87.273096    20.407982   -301.51045   -9.1852942   -28.379372 
    5200   -1726319.9    -3.399337    86.995048    20.031002   -301.00603   -9.0065553   -27.886896 
    5300   -1726320.4   -4.0672777    86.686604    19.649967   -300.53054    -8.839433   -27.429398 
    5400   -1726320.6   -4.6821258    86.387694     19.31465   -300.04819   -8.6753213   -26.989553 
    5500   -1726320.9   -5.3005559    86.091406    18.983198    -299.5366   -8.4947275   -26.542987 
    5600   -1726321.3   -5.8861006    85.766914    18.647655   -299.05412    -8.313644   -26.118643 
    5700   -1726321.6   -6.4726714    85.438101    18.335702   -298.54112   -8.1326982   -25.703802 
    5800   -1726322.1   -7.0784748    85.090401     18.00797   -298.02505   -7.9360192   -25.289817 
    5900   -1726322.3   -7.6067198    84.765244    17.750841   -297.53573   -7.7499005   -24.902575 
    6000   -1726322.6   -8.1206374    84.454834    17.509001   -297.03606   -7.5612564   -24.510533 
    6100   -1726322.8   -8.6442393    84.139311     17.27387   -296.52369   -7.3642838   -24.118283 
    6200   -1726323.3   -9.1406141    83.817797    17.048712   -296.05075    -7.170817   -23.745394 
    6300   -1726323.6   -9.6071329    83.540894    16.845493   -295.58379   -6.9776305   -23.397039 
    6400   -1726323.9   -10.064498    83.281382     16.65964   -295.11997   -6.7867093   -23.041142 
    6500   -1726324.4   -10.523325    83.044173    16.454274   -294.65154   -6.5911315   -22.686822 
    6600   -1726324.6   -10.930503    82.846219    16.286294    -294.2125   -6.4050235   -22.363964 
    6700   -1726324.8   -11.334802    82.667554     16.15219   -293.77181   -6.2180945   -22.036558 
    6800   -1726325.3   -11.747698    82.494396    16.013934   -293.35341   -6.0410282   -21.729763 
    6900   -1726325.5   -12.127899     82.36958    15.899723   -292.95796   -5.8625571   -21.436929 
    7000   -1726325.8   -12.515615    82.226162    15.780324   -292.55184   -5.6908337   -21.142978 
    7100   -1726326.2   -12.933689    82.080427    15.643839   -292.18094   -5.5305756   -20.861483 
    7200   -1726326.4    -13.31153    81.963166    15.543006   -291.83515    -5.379734   -20.596813 
    7300   -1726326.6    -13.69941     81.86367     15.44131   -291.49283   -5.2350298   -20.331123 
    7400     -1726327   -14.124105    81.762278    15.315063   -291.14612   -5.0810211   -20.051375 
    7500   -1726327.2   -14.507395    81.678109    15.207314   -290.83918   -4.9492815   -19.805541 
    7600   -1726327.4   -14.888036    81.596115     15.10167   -290.53374   -4.8146093   -19.556844 
    7700   -1726327.6   -15.281482    81.519873    14.999419   -290.23081   -4.6793288   -19.302204 
    7800     -1726328   -15.683643    81.430302    14.884878    -289.9426   -4.5433489   -19.056781 
    7900   -1726328.1   -16.022252    81.380979    14.805921   -289.68162    -4.422175    -18.81992 
    8000   -1726328.3   -16.379659    81.357165    14.733384    -289.4158   -4.2932787   -18.573731 
    8100   -1726328.6   -16.766575    81.316845    14.644632   -289.15256   -4.1567723   -18.326956 
    8200   -1726328.8   -17.104604    81.313543    14.583162   -288.91278   -4.0239947    -18.09617 
    8300   -1726328.9   -17.447413    81.334315    14.527675   -288.66203   -3.8831655   -17.854191 
    8400   -1726329.1     -17.7956    81.349756    14.466831   -288.41403   -3.7329762   -17.599901 
    8500   -1726329.5   -18.144233    81.361135    14.397103   -288.17558    -3.580891   -17.364416 
    8600   -1726329.6   -18.443034    81.399833    14.355416   -287.94131   -3.4281215    -17.13935 
    8700   -1726329.8   -18.745085    81.440964     14.31392   -287.70635   -3.2624073   -16.911853 
    8800   -1726329.9    -19.06083    81.488153    14.266706   -287.46853   -3.0813128   -16.687395 
    8900   -1726330.2   -19.383413    81.522775    14.201793   -287.23099   -2.8957009   -16.468633 
    9000   -1726330.4   -19.664949    81.559184    14.156162   -287.01163    -2.718545   -16.263729 
    9100   -1726330.5   -19.961808    81.598607    14.107303   -286.78183   -2.5209637   -16.054056 
    9200   -1726330.7   -20.272003    81.626768    14.042986   -286.55756    -2.326852   -15.847919 
    9300   -1726330.8   -20.554764    81.664727    13.993089   -286.32878   -2.1380342   -15.652042 
    9400   -1726330.9   -20.852991    81.705997    13.935922   -286.08306   -1.9305421   -15.448199 
    9500   -1726331.2   -21.147758       81.714    13.861445   -285.86034    -1.734356   -15.263853 
    9600   -1726331.3   -21.430077    81.727963    13.791859   -285.63391   -1.5317518   -15.068528 
    9700   -1726331.4   -21.733859    81.743358    13.722574   -285.39603   -1.3132296   -14.868005 
    9800   -1726331.6   -22.029198    81.733536    13.642817   -285.17494   -1.1105796   -14.682475 
    9900   -1726331.7   -22.308357    81.722426    13.573718   -284.94477  -0.90014282   -14.501359 
   10000   -1726331.8   -22.580333    81.715968    13.506322   -284.71552  -0.69027424   -14.314279 
   10100     -1726332   -22.875267    81.683928     13.42666   -284.48537  -0.47831273   -14.132053 
   10200   -1726332.1   -23.133782    81.652471    13.360109   -284.26151  -0.27042825   -13.961959 
   10300   -1726332.2   -23.406641    81.611698    13.283644   -284.02131 -0.061665873   -13.779534 
   10400   -1726332.3   -23.672917    81.552864     13.20261    -283.7908   0.13704263   -13.609682 
   10500   -1726332.4   -23.935204    81.512028     13.13023   -283.55322   0.34347647    -13.43813 
   10600   -1726332.6   -24.215768    81.442081    13.047057   -283.31888   0.55079537   -13.265468 
   10700   -1726332.7   -24.465146    81.381639    12.973895   -283.09231   0.74633817   -13.101189 
   10800   -1726332.8   -24.735985    81.298817    12.889838   -282.85589   0.94719695   -12.928982 
   10900   -1726332.9   -24.969044    81.233449    12.817552    -282.6345    1.1332521   -12.772975 
   11000     -1726333   -25.213698    81.158313    12.754396   -282.39887    1.3383165   -12.609512 
   11100   -1726333.1    -25.45647    81.075642    12.689043   -282.17341    1.5378449   -12.455807 
   11200   -1726333.2   -25.683065    80.996635     12.63075   -281.94784    1.7327748   -12.293258 
   11300   -1726333.3   -25.904241    80.926998    12.583331   -281.71757    1.9392634   -12.129501 
   11400   -1726333.4   -26.110513    80.854776    12.521449   -281.50668    2.1284459   -11.979534 
   11500   -1726333.5   -26.323313    80.781606     12.47198   -281.28754    2.3274475   -11.826307 
   11600   -1726333.6     -26.5361     80.70372    12.417111   -281.07562    2.5200787   -11.678234 
   11700   -1726333.7   -26.732681    80.633375    12.374406   -280.86951    2.7094022   -11.529284 
   11800   -1726333.8   -26.935245    80.560982    12.323039    -280.6531    2.9081942   -11.383443 
   11900   -1726333.9   -27.113367    80.506017     12.28673   -280.45341    3.0927549   -11.242332 
   12000     -1726334   -27.314522    80.445117    12.240298   -280.24743    3.2854908   -11.097114 
   12100   -1726334.1   -27.516362    80.379937    12.193654   -280.04388    3.4765025   -10.960149 
   12200   -1726334.1   -27.698447    80.321683    12.152656   -279.83385    3.6656541   -10.825823 
   12300   -1726334.2   -27.896524    80.265465    12.103316   -279.61778    3.8655618   -10.698329 
   12400   -1726334.3   -28.088468    80.207767    12.050988   -279.41198     4.061371   -10.573533 
   12500   -1726334.4   -28.277728    80.156345    12.009389   -279.20485    4.2501753   -10.456602 
   12600   -1726334.4   -28.475983    80.122449    11.969241   -278.98567    4.4465993   -10.333149 
   12700   -1726334.6   -28.672378    80.081378    11.923754   -278.76652    4.6344838   -10.218741 
   12800   -1726334.6    -28.85715    80.054466    11.876535   -278.54372    4.8179357   -10.106942 
   12900   -1726334.7   -29.046995    80.018639    11.829153   -278.30653     5.007663   -9.9924752 
   13000   -1726334.8   -29.240508    79.977836    11.773241   -278.06674    5.1954299   -9.8785949 
   13100   -1726334.8   -29.422518    79.934281    11.718641   -277.83915    5.3641627   -9.7677753 
   13200   -1726334.9   -29.606173    79.888897     11.66724   -277.59923    5.5429032   -9.6569155 
   13300   -1726334.9   -29.787408     79.84606    11.613963   -277.35575    5.7154426   -9.5411392 
   13400     -1726335   -29.960765    79.785549    11.558246    -277.1284    5.8736102   -9.4281614 
   13500     -1726335   -30.135968    79.725384    11.495531     -276.891    6.0309361   -9.3153238 
   13600   -1726335.1   -30.320637    79.648869    11.432623   -276.64331    6.1926633   -9.1984389 
   13700   -1726335.2   -30.502992    79.580531     11.36465   -276.41501    6.3450737   -9.0866574 
   13800   -1726335.2   -30.686753    79.518104    11.308712   -276.17617    6.5010682    -8.975256 
   13900   -1726335.3   -30.890017    79.444618    11.245843    -275.9271    6.6526969   -8.8568757 
   14000   -1726335.4   -31.079575    79.361908    11.195888   -275.68293    6.7944218    -8.741662 
   14100   -1726335.4   -31.273281    79.279271    11.153059   -275.42079    6.9393573   -8.6226629 
   14200   -1726335.6   -31.464568    79.179562    11.093047   -275.15223    7.0720172   -8.5083701 
   14300   -1726335.6   -31.639801    79.073455    11.031933   -274.88376    7.1982387    -8.401569 
   14400   -1726335.8   -31.816439    78.937063    10.936517   -274.60992    7.3252819   -8.2988243 
   14500   -1726335.9   -31.974626    78.813679    10.849184   -274.35423    7.4427635   -8.2105382 
   14600   -1726335.9   -32.145447    78.693189    10.752498   -274.09074    7.5709156   -8.1158153 
   14700     -1726336   -32.317123    78.576992     10.65655   -273.83147    7.6950624   -8.0174564 
   14800   -1726336.1   -32.481631    78.468746    10.567997   -273.56858    7.8168583   -7.9193509 
   14900   -1726336.1   -32.645596    78.363452    10.485461   -273.29069    7.9474719   -7.8127786 
   15000   -1726336.2   -32.805775    78.261456    10.406744   -273.02891    8.0678074   -7.7093314 
   15100   -1726336.3   -32.968281    78.165376    10.330122   -272.75703    8.1900183   -7.6051561 
   15200   -1726336.3   -33.148172    78.066973    10.253936   -272.47376    8.3212014   -7.4925933 
   15300   -1726336.4   -33.311741    77.982401    10.181795   -272.21092    8.4382431   -7.3820681 
   15400   -1726336.5   -33.480159    77.884712    10.109533   -271.94182    8.5581215   -7.2685383 
   15500   -1726336.6    -33.65475    77.791506    10.040503   -271.67149    8.6786413   -7.1546212 
   15600   -1726336.7   -33.810598    77.712942    9.9850934    -271.4212    8.7940146    -7.042484 
   15700   -1726336.7   -33.973831    77.631079    9.9329766   -271.16005    8.9122425   -6.9248267 
   15800   -1726336.8   -34.144589    77.552193    9.8782173   -270.90246    9.0303396   -6.8026592 
   15900   -1726336.9   -34.290201    77.480428    9.8374384   -270.65888    9.1344134   -6.6856752 
   16000   -1726336.9   -34.452505    77.402032    9.7849175   -270.39679    9.2484827   -6.5645699 
   16100     -1726337   -34.609159     77.31754    9.7346364   -270.13766    9.3618907   -6.4393499 
   16200   -1726337.1   -34.756237    77.244053    9.6922951   -269.87736    9.4815166   -6.3130744 
   16300   -1726337.2   -34.913289    77.157895    9.6473369   -269.59916    9.6120114   -6.1764818 
   16400   -1726337.3   -35.063718    77.081014    9.6010554   -269.33725     9.736645   -6.0408822 
   16500   -1726337.3    -35.20899    77.012984    9.5607333   -269.06683    9.8627804   -5.8992582 
   16600   -1726337.4   -35.350918    76.939411    9.5174051    -268.7904     9.989433    -5.755604 
   16700   -1726337.5   -35.504298     76.86293    9.4682951   -268.52469    10.105555   -5.6178219 
   16800   -1726337.6   -35.665491    76.790539    9.4190191   -268.24121    10.221398   -5.4688132 
   16900   -1726337.7   -35.824065    76.712436    9.3623665   -267.96771    10.332826   -5.3221203 
   17000   -1726337.7    -35.97788    76.644434    9.3085676   -267.70051    10.435131   -5.1732089 
   17100   -1726337.9   -36.141821    76.570648    9.2510033    -267.4181     10.54543   -5.0207354 
   17200   -1726337.9   -36.284623    76.511008    9.1981458   -267.14981    10.650375   -4.8750588 
   17300     -1726338   -36.444784    76.451178    9.1343014   -266.86341    10.757467   -4.7259588 
   17400   -1726338.1   -36.591906    76.388179    9.0767094   -266.59165    10.854986   -4.5860339 
   17500   -1726338.2   -36.732787    76.324114    9.0227194   -266.30308    10.955801   -4.4416749 
   17600   -1726338.3   -36.873419    76.255903    8.9645614   -266.01607    11.060833   -4.3103327 
   17700   -1726338.3   -36.994736    76.198515     8.915553    -265.7288    11.167377   -4.1810133 
   17800   -1726338.4   -37.120404     76.13675    8.8625602   -265.43104    11.284063   -4.0527431 
   17900   -1726338.5   -37.223138    76.085153    8.8210515   -265.15002    11.397155   -3.9301221 
   18000   -1726338.5   -37.332246     76.02283    8.7763144   -264.85438    11.522874   -3.8050962 
   18100   -1726338.6   -37.437544    75.960689    8.7289289   -264.56926    11.647395   -3.6862254 
   18200   -1726338.7   -37.533189     75.89235    8.6858447    -264.2874    11.775182   -3.5656744 
   18300   -1726338.7   -37.631276     75.82643    8.6448308   -263.98702    11.909781   -3.4438522 
   18400   -1726338.8   -37.723601    75.765598    8.6026498   -263.71427     12.04152   -3.3289281 
   18500   -1726338.8   -37.817002    75.701868    8.5584806   -263.42607    12.181103    -3.209882 
   18600   -1726338.9   -37.915336    75.641294    8.5139882   -263.12468     12.33204   -3.0812996 
   18700     -1726339   -38.012738    75.570797    8.4683307    -262.8425    12.479164   -2.9649352 
   18800     -1726339   -38.105774     75.51036    8.4246968   -262.56355    12.628645   -2.8515112 
   18900   -1726339.1   -38.192292    75.453437    8.3738298   -262.26644    12.785102   -2.7363299 
   19000   -1726339.2   -38.286844    75.390797    8.3187268   -261.96828    12.945965   -2.6226713 
   19100   -1726339.2   -38.367576    75.333487      8.27028   -261.68473    13.100335   -2.5129656 
   19200   -1726339.3   -38.451182    75.272064    8.2222185   -261.38724    13.268731   -2.4040351 
   19300   -1726339.4   -38.539582    75.215135    8.1707564   -261.09388    13.434229   -2.2960016 
   19400   -1726339.4   -38.617095    75.158674    8.1241669   -260.81005    13.593886   -2.1952354 
   19500   -1726339.5   -38.699192    75.093586    8.0725428   -260.51462    13.757172   -2.0937525 
   19600   -1726339.5    -38.78277    75.039346    8.0258512   -260.20936    13.922185   -1.9915648 
   19700   -1726339.6   -38.861465    74.990571     7.974146   -259.91304    14.082686   -1.8919763 
   19800   -1726339.6   -38.932505    74.943575    7.9346767   -259.62265    14.238845   -1.7986051 
   19900   -1726339.7    -39.00542    74.895623    7.8919324   -259.31628    14.399525   -1.7023499 
   20000   -1726339.8   -39.079556    74.847806    7.8432996   -259.00321    14.559067   -1.6039397 
   20100   -1726339.9   -39.145579    74.811325    7.8090288   -258.70762    14.700116   -1.5125591 
   20200   -1726339.9   -39.213452    74.772232    7.7801743   -258.39679    14.844785    -1.419558 
   20300     -1726340   -39.276034    74.735487    7.7503865   -258.07022    14.990471   -1.3227561 
   20400   -1726340.1   -39.339028     74.69497    7.7193563   -257.76837     15.11779   -1.2391588 
   20500   -1726340.1   -39.397574    74.653255    7.6962363   -257.44852    15.255663   -1.1456963 
   20600   -1726340.2   -39.452887    74.611044    7.6771377   -257.12057    15.396861   -1.0471853 
   20700   -1726340.3   -39.508626    74.555575    7.6538684   -256.80377    15.532447  -0.95550845 
   20800   -1726340.3   -39.554521    74.510074     7.633489   -256.48894    15.664839  -0.86695764 
   20900   -1726340.4   -39.607173    74.444033    7.6135597   -256.16255    15.799344  -0.77838963 
   21000   -1726340.4   -39.650754    74.376143    7.6010051     -255.828    15.938158  -0.68737233 
   21100   -1726340.5   -39.696789    74.308533     7.576854   -255.51362    16.073763  -0.60052483 
   21200   -1726340.6   -39.732062    74.237552    7.5594547   -255.20133    16.207938  -0.51852919 
   21300   -1726340.6   -39.761504     74.16371    7.5433428   -254.87717    16.343121  -0.43181272 
   21400   -1726340.7   -39.797358    74.087852    7.5248163   -254.55309    16.485464  -0.34612659 
   21500   -1726340.8   -39.827105    74.014532    7.5090853   -254.25023    16.619745  -0.26937158 
   21600   -1726340.8   -39.847805    73.936903    7.4916507   -253.93251      16.7583  -0.18811239 
   21700   -1726340.9   -39.869641     73.85144    7.4680589   -253.62485    16.893672  -0.11169824 
   21800   -1726340.9   -39.885189    73.768355    7.4533902   -253.33031    17.027092 -0.035455535 
   21900     -1726341   -39.900463    73.679568    7.4362023   -253.02114    17.169532  0.043484884 
   22000     -1726341   -39.917692    73.588706    7.4139961   -252.74058    17.296135   0.11809303 
   22100   -1726341.1   -39.929298    73.497739    7.3943393   -252.44846    17.428034   0.19062268 
   22200   -1726341.1   -39.946212    73.398221    7.3693467    -252.1599    17.564108   0.26522268 
   22300   -1726341.2   -39.957284    73.307881    7.3518872   -251.88435    17.690967    0.3322904 
   22400   -1726341.2   -39.960699    73.210951    7.3308633   -251.59913    17.822969   0.40493024 
   22500   -1726341.3   -39.974913    73.105083    7.3028086   -251.31225    17.954726   0.47749497 
   22600   -1726341.3   -39.983334    73.002858    7.2753896   -251.04278    18.078946   0.54985157 
   22700   -1726341.3   -39.991476    72.900772    7.2463755   -250.76807     18.20364   0.61754298 
   22800   -1726341.4    -39.99695     72.79381    7.2170775   -250.48786    18.337893   0.68665048 
   22900   -1726341.4   -40.009224    72.694783    7.1859233   -250.21779    18.465287   0.75328189 
   23000   -1726341.5   -40.017773    72.592298    7.1573512   -249.94931    18.587927   0.82086249 
   23100   -1726341.5   -40.022135    72.488401    7.1328169   -249.67013    18.716495   0.89224882 
   23200   -1726341.6   -40.028099    72.387855    7.1039618   -249.41194    18.834667   0.95750918 
   23300   -1726341.6   -40.030016    72.288586    7.0773769   -249.14019    18.960066    1.0252247 
   23400   -1726341.6   -40.032378    72.186052    7.0435644   -248.87097    19.083019    1.0899806 
   23500   -1726341.7   -40.030474    72.090263    7.0203158   -248.61011    19.204254    1.1533502 
   23600   -1726341.7   -40.029588    71.985659    6.9902346   -248.33237    19.331169    1.2167168 
   23700   -1726341.8   -40.031004    71.886223    6.9595591   -248.07781    19.449896    1.2797372 
   23800   -1726341.8   -40.031278    71.779661    6.9308999   -247.80698    19.572211    1.3439093 
   23900   -1726341.8   -40.034196    71.674044    6.8986378   -247.53985    19.696172     1.401422 
   24000   -1726341.9   -40.032708    71.570828    6.8685515   -247.27787    19.815627    1.4617778 
   24100   -1726341.9   -40.029776    71.454643    6.8371873   -247.00237    19.939974    1.5210387 
   24200     -1726342   -40.028173    71.342041    6.8011168   -246.74659    20.051691    1.5768247 
   24300     -1726342   -40.024294    71.220119    6.7647011   -246.47792    20.168109    1.6337241 
   24400     -1726342   -40.020783    71.097188    6.7271401   -246.19995    20.283856     1.690984 
   24500   -1726342.1   -40.017361    70.980992    6.6896001   -245.94263    20.392707    1.7434205 
   24600   -1726342.1   -40.013506    70.865847    6.6514341   -245.66851    20.507194    1.8000132 
   24700   -1726342.2   -40.011304    70.749988    6.6145734   -245.39714    20.618269    1.8541413 
   24800   -1726342.2   -40.000737     70.63304    6.5808101   -245.13026    20.727618    1.9043263 
   24900   -1726342.2   -39.988669    70.515945    6.5489575   -244.84822    20.840726    1.9543029 
   25000   -1726342.3   -39.984478    70.396565    6.5131739   -244.57936    20.944427    2.0031869 
   25100   -1726342.3   -39.967888    70.272862    6.4820267   -244.30134    21.047926    2.0491506 
   25200   -1726342.4   -39.956578    70.145428    6.4432259   -244.01512    21.155615    2.0957901 
   25300   -1726342.4   -39.947928    70.017173    6.4069937   -243.74088    21.259752    2.1386744 
   25400   -1726342.4   -39.933318     69.88591    6.3707879   -243.44562    21.368399    2.1838242 
   25500   -1726342.5   -39.921324    69.751855    6.3285502   -243.16358    21.467987    2.2268532 
   25600   -1726342.5   -39.905944    69.619364    6.2899422   -242.87109    21.567157    2.2687815 
   25700   -1726342.6   -39.885412    69.482222    6.2511768    -242.5711    21.668182    2.3112578 
   25800   -1726342.6   -39.865771    69.356868    6.2192647   -242.28453    21.764866    2.3523869 
   25900   -1726342.7   -39.841751    69.214599    6.1826955   -241.97965    21.864216    2.3956669 
   26000   -1726342.7   -39.820841    69.087551    6.1512944   -241.69306     21.95867    2.4377644 
   26100   -1726342.8    -39.79763    68.949273    6.1211234   -241.39457    22.058778    2.4824512 
   26200   -1726342.8   -39.775473    68.805326     6.089543   -241.09453    22.157982    2.5238803 
   26300   -1726342.9   -39.749696    68.678585    6.0651366   -240.80707    22.257599    2.5632633 
   26400   -1726342.9   -39.726984      68.5398    6.0452116   -240.50369    22.363311    2.6067141 
   26500     -1726343   -39.696425    68.409348    6.0265235   -240.22077    22.462701    2.6503331 
   26600     -1726343   -39.666942    68.273907    6.0112513   -239.92121    22.565851    2.6996868 
   26700   -1726343.1   -39.643086    68.143755    5.9991598   -239.64006    22.668582    2.7458417 
   26800   -1726343.1   -39.610666    68.014744    5.9864147   -239.35153    22.773512    2.7895947 
   26900   -1726343.2   -39.577014    67.879943    5.9678292   -239.05549    22.878224    2.8350862 
   27000   -1726343.2   -39.543072    67.749013    5.9479513   -238.77834     22.97363    2.8775962 
   27100   -1726343.2   -39.506105    67.621037    5.9318736   -238.49026    23.069937    2.9230339 
   27200   -1726343.3   -39.469147    67.480662    5.9104892   -238.19928    23.165575    2.9697708 
   27300   -1726343.3   -39.441599    67.344446    5.8878844   -237.91439    23.259315    3.0166788 
   27400   -1726343.4   -39.410163    67.222452    5.8693183   -237.64263     23.34999    3.0621605 
   27500   -1726343.4   -39.377166    67.095647     5.849914   -237.36517    23.441415    3.1092127 
   27600   -1726343.4   -39.340951    66.964702    5.8344045   -237.08075    23.536599    3.1556195 
   27700   -1726343.5   -39.308444     66.84077    5.8142643   -236.81623    23.622547    3.2011806 
   27800   -1726343.5   -39.279508    66.708874    5.7968828   -236.54241     23.71126    3.2438308 
   27900   -1726343.5   -39.245577        66.58    5.7740067   -236.26017    23.804287    3.2890428 
   28000   -1726343.6   -39.214264      66.4499    5.7559268   -235.99385    23.890481    3.3321251 
   28100   -1726343.6   -39.180213    66.321081    5.7343451   -235.72253    23.979937    3.3771943 
   28200   -1726343.7    -39.14713     66.18448    5.7118441   -235.43975    24.068966    3.4211619 
   28300   -1726343.7   -39.118608    66.054552    5.6870444   -235.16542    24.155381    3.4625444 
   28400   -1726343.7   -39.084621    65.927013    5.6646164    -234.8956    24.240393    3.5034878 
   28500   -1726343.8   -39.043508    65.797058    5.6433118   -234.61658    24.328242    3.5474621 
   28600   -1726343.8   -39.004397    65.663116    5.6173272   -234.33929    24.415449    3.5862604 
   28700   -1726343.8   -38.968997    65.531868    5.5929386   -234.07309    24.500628    3.6262933 
   28800   -1726343.9   -38.930862    65.398545    5.5666462    -233.7933    24.587927    3.6658461 
   28900   -1726343.9    -38.89061    65.258641    5.5401194   -233.50726    24.675359    3.7058618 
   29000   -1726343.9   -38.849043    65.128688    5.5143446    -233.2354    24.760889    3.7432127 
   29100     -1726344   -38.805298    64.994876    5.4854695   -232.95246     24.85043    3.7837888 
   29200     -1726344   -38.761461    64.852561    5.4584428   -232.66665      24.9393    3.8221173 
   29300     -1726344   -38.720509    64.718644    5.4295879   -232.39478    25.021242    3.8563987 
   29400   -1726344.1   -38.671994    64.580211    5.4038349   -232.11613    25.106554    3.8922349 
   29500   -1726344.1   -38.621547    64.436046    5.3759188   -231.82757    25.194192    3.9299618 
   29600   -1726344.1   -38.574886    64.288801    5.3433699   -231.54728    25.280401    3.9619716 
   29700   -1726344.2   -38.531182    64.143734    5.3127493   -231.27584    25.361955    3.9957885 
   29800   -1726344.2   -38.486526    63.998861    5.2861201    -231.0024    25.446581    4.0283975 
   29900   -1726344.2   -38.437803     63.85162    5.2551282   -230.72041    25.531733    4.0630369 
   30000   -1726344.3   -38.388564     63.70146    5.2187677   -230.44166    25.617726    4.0929547 
   30100   -1726344.3   -38.341619    63.558348    5.1863173   -230.17124     25.69913    4.1219532 
   30200   -1726344.3   -38.293884    63.407366    5.1543677    -229.8931    25.786326    4.1540248 
   30300   -1726344.4   -38.247728    63.249537    5.1210863   -229.60737    25.872549    4.1842791 
   30400   -1726344.4   -38.197823    63.108872    5.0878351   -229.33462     25.95312    4.2133634 
   30500   -1726344.4   -38.141553    62.955455    5.0549415   -229.05257    26.036855    4.2412208 
   30600   -1726344.4   -38.082368    62.796654     5.022315   -228.75787      26.1209    4.2713419 
   30700   -1726344.5   -38.031255    62.647025     4.987528   -228.48484     26.19912    4.2964057 
   30800   -1726344.5   -37.981753    62.501384    4.9558292   -228.21233    26.277923    4.3234871 
   30900   -1726344.5   -37.923882    62.353063    4.9267101    -227.9319    26.358996    4.3511719 
   31000   -1726344.6    -37.86035    62.199417    4.8939429   -227.64213    26.439395    4.3803701 
   31100   -1726344.6   -37.803756    62.050677    4.8578262   -227.36162    26.515199    4.4082279 
   31200   -1726344.6      -37.745    61.900991    4.8271926   -227.08567    26.588452    4.4351025 
   31300   -1726344.7   -37.684662    61.745798    4.7953207   -226.80222    26.662928    4.4608808 
   31400   -1726344.7   -37.624419    61.585258    4.7609847   -226.51009    26.740696    4.4867704 
   31500   -1726344.7   -37.569992    61.430253    4.7261684   -226.23731    26.813812    4.5101833 
   31600   -1726344.8   -37.503884     61.28282    4.6933255    -225.9642    26.886622    4.5364977 
   31700   -1726344.8   -37.433181    61.124148    4.6589337   -225.68217    26.959828    4.5615008 
   31800   -1726344.8   -37.371518    60.972277    4.6233635   -225.41044     27.02961    4.5881241 
   31900   -1726344.9   -37.306464     60.82064    4.5895916   -225.13664    27.099409     4.613197 
   32000   -1726344.9   -37.237968     60.65837    4.5574013   -224.85394    27.171381    4.6385664 
   32100   -1726344.9   -37.176794    60.502006    4.5215423   -224.58137    27.238147    4.6618414 
   32200   -1726344.9   -37.108896    60.344586    4.4894526   -224.30775    27.304845    4.6847373 
   32300     -1726345   -37.037145    60.184235    4.4573499   -224.02525    27.373934    4.7081639 
   32400     -1726345   -36.970385    60.030201    4.4236707   -223.75912    27.440951    4.7312641 
   32500     -1726345   -36.897411    59.876197    4.3937064   -223.48829     27.50667    4.7539343 
   32600   -1726345.1   -36.827614    59.713705     4.359655   -223.21109    27.572855    4.7774236 
   32700   -1726345.1   -36.752795    59.563974    4.3281216   -222.94534    27.638057    4.8002497 
   32800   -1726345.1   -36.676373    59.399527    4.2932362    -222.6673      27.7013    4.8250652 
   32900   -1726345.2   -36.604383    59.239987    4.2572154    -222.3944    27.766249    4.8480812 
   33000   -1726345.2   -36.530147    59.082407    4.2241137    -222.1236    27.826222    4.8686606 
   33100   -1726345.2   -36.455549    58.914448    4.1902286   -221.84365    27.886699    4.8894143 
   33200   -1726345.3   -36.380617    58.755401    4.1561398   -221.58374    27.938998    4.9099616 
   33300   -1726345.3   -36.296761    58.586176     4.118661    -221.3081    27.996171    4.9299115 
   33400   -1726345.3   -36.218983    58.412287     4.080695   -221.02897    28.052108    4.9513409 
   33500   -1726345.4   -36.138037    58.247461    4.0413223   -220.76232    28.103137    4.9701185 
   33600   -1726345.4   -36.050536     58.07809    4.0015907   -220.48555    28.156601    4.9906818 
   33700   -1726345.4   -35.968533    57.898442    3.9570287   -220.20555     28.20567    5.0093897 
   33800   -1726345.5   -35.887842    57.736367    3.9190432   -219.93915     28.25243    5.0264257 
   33900   -1726345.5   -35.801557    57.567392    3.8808718   -219.66198    28.295835    5.0437222 
   34000   -1726345.5   -35.720401    57.396802    3.8412005   -219.37922    28.341415    5.0591222 
   34100   -1726345.6   -35.647403    57.229493    3.8020897   -219.11063    28.381524    5.0769433 
   34200   -1726345.6   -35.566956    57.053364    3.7608768   -218.82584    28.426182    5.0908302 
   34300   -1726345.6   -35.484069    56.876282    3.7203428   -218.54308    28.466899    5.1045596 
   34400   -1726345.7   -35.405338    56.710213    3.6809048   -218.26966    28.503907    5.1174362 
   34500   -1726345.7   -35.322822    56.529487    3.6378296   -217.97891    28.542101    5.1338921 
   34600   -1726345.8   -35.245242    56.346072    3.5932337   -217.69426    28.575144    5.1480676 
   34700   -1726345.8   -35.160815    56.173265    3.5567966   -217.41446    28.605886    5.1620806 
   34800   -1726345.8   -35.075332     55.99572    3.5191687   -217.12103    28.636178    5.1753363 
   34900   -1726345.9    -34.99025    55.814323     3.484871   -216.81959    28.662577    5.1852339 
   35000   -1726345.9   -34.906347    55.641585    3.4547637   -216.53847    28.686885    5.1972991 
   35100     -1726346   -34.816219    55.465327    3.4274037   -216.24525    28.706785    5.2101341 
   35200     -1726346   -34.717462    55.288049    3.4031662   -215.94371    28.725648    5.2233317 
   35300   -1726346.1   -34.623604    55.110933     3.381509    -215.6322    28.740396     5.237123 
   35400   -1726346.1   -34.530784    54.947539    3.3657999   -215.34198    28.753997    5.2519896 
   35500   -1726346.2   -34.430104    54.779612    3.3530694   -215.04155    28.764533    5.2678544 
   35600   -1726346.2   -34.325771    54.606389    3.3441778   -214.72726    28.776235    5.2826958 
   35700   -1726346.3   -34.230506    54.443514    3.3389852   -214.43718    28.785762    5.3002078 
   35800   -1726346.3   -34.119601    54.283832    3.3439188   -214.13566    28.789163    5.3201206 
   35900   -1726346.4   -34.011677    54.110219     3.340942   -213.82996    28.789863    5.3421533 
   36000   -1726346.4   -33.910966    53.953308    3.3415726   -213.54343    28.790237    5.3574531 
   36100   -1726346.5    -33.80203    53.781123    3.3452425   -213.24416    28.791038    5.3771221 
   36200   -1726346.5   -33.694144     53.60933    3.3459692   -212.94988    28.789818    5.3993807 
   36300   -1726346.5   -33.586132    53.445622    3.3454251   -212.65932     28.78497    5.4218013 
   36400   -1726346.6   -33.469442    53.282524    3.3513608   -212.35954    28.782997    5.4440485 
   36500   -1726346.6   -33.368763    53.122632    3.3493732   -212.07518    28.778407    5.4647407 
   36600   -1726346.7   -33.265044    52.963973    3.3491902   -211.78699    28.768657    5.4868697 
   36700   -1726346.7   -33.153859    52.804892    3.3509856   -211.49242     28.76494    5.5084147 
   36800   -1726346.8   -33.050837     52.62869    3.3428173   -211.19101    28.753524     5.531898 
   36900   -1726346.8   -32.946181    52.469956    3.3379622   -210.90954    28.744665    5.5497784 
   37000   -1726346.8   -32.836218    52.310893    3.3356457   -210.62406    28.736812    5.5697105 
   37100   -1726346.9   -32.728075    52.154108    3.3348111   -210.33197    28.725676    5.5889137 
   37200   -1726346.9    -32.61482    51.990535    3.3316681   -210.02854     28.71214    5.6087898 
   37300   -1726346.9   -32.512984    51.834487    3.3264467   -209.74703    28.697234    5.6283295 
   37400     -1726347   -32.411039    51.680629    3.3203774   -209.45804    28.682812    5.6493116 
   37500     -1726347    -32.30571    51.523364    3.3163497    -209.1578    28.667233    5.6699377 
   37600   -1726347.1   -32.199578    51.365704    3.3101265   -208.85761    28.651172    5.6863155 
   37700   -1726347.1   -32.099798    51.215234    3.3056467   -208.57413    28.636287    5.7039548 
   37800   -1726347.1   -31.999993    51.060805    3.3025698   -208.28665    28.622181     5.718748 
   37900   -1726347.1   -31.894436    50.896819    3.2920972   -207.98985    28.606377    5.7343882 
   38000   -1726347.2   -31.791667    50.737502    3.2799337   -207.70134    28.588345    5.7528247 
   38100   -1726347.2    -31.69545    50.579302    3.2685812   -207.41436    28.572714    5.7664269 
   38200   -1726347.2   -31.590762    50.422795    3.2594614   -207.12371    28.552077    5.7815179 
   38300   -1726347.3   -31.486179    50.259485    3.2506545   -206.82301    28.535468    5.7978505 
   38400   -1726347.3   -31.387003    50.099294     3.238568   -206.52891    28.516492    5.8109609 
   38500   -1726347.4   -31.286894     49.94726    3.2264202   -206.24604    28.495269    5.8228855 
   38600   -1726347.4   -31.186891    49.786636    3.2140785   -205.95812    28.478586    5.8385523 
   38700   -1726347.4   -31.084861    49.624402    3.2001788   -205.66295    28.460915    5.8503566 
   38800   -1726347.4   -30.983637    49.449563    3.1795708   -205.36318    28.439487    5.8609296 
   38900   -1726347.5   -30.885201     49.28616    3.1640207    -205.0761    28.418059    5.8699771 
   39000   -1726347.5   -30.787502     49.13424    3.1492514   -204.78961    28.397218    5.8790441 
   39100   -1726347.6   -30.691369    48.971537    3.1349902   -204.49119    28.376712    5.8898432 
   39200   -1726347.6   -30.594115    48.804073    3.1168573    -204.1897    28.352636    5.9019342 
   39300   -1726347.6   -30.497829    48.641606    3.1031451   -203.90399    28.327175    5.9125714 
   39400   -1726347.7   -30.400642     48.47398    3.0881448   -203.60649    28.301568      5.92607 
   39500   -1726347.7   -30.305793     48.29615    3.0697621   -203.30512    28.269903    5.9361881 
   39600   -1726347.7   -30.215267      48.1402    3.0505065   -203.02489     28.23856    5.9482328 
   39700   -1726347.8   -30.113284    47.982571    3.0386874   -202.73092    28.206486    5.9582484 
   39800   -1726347.8    -30.01434     47.81831    3.0205315   -202.43938    28.175186    5.9668892 
   39900   -1726347.8   -29.909046    47.657592    3.0080821   -202.14791    28.142886    5.9784855 
   40000   -1726347.9   -29.812514    47.494555    2.9957355   -201.85365    28.112319     5.990229 
   40100   -1726347.9   -29.712156    47.331524    2.9812976   -201.55683    28.083175    6.0019555 
   40200   -1726347.9   -29.608239    47.161082    2.9682575   -201.24666    28.053328    6.0091346 
   40300     -1726348   -29.512305    47.001856    2.9519526   -200.96073    28.023411    6.0164093 
   40400     -1726348   -29.416931    46.827913    2.9352556   -200.66438    27.993312    6.0213557 
   40500     -1726348   -29.317017    46.649177     2.924054   -200.35792    27.962948    6.0259215 
   40600   -1726348.1   -29.224482      46.4814    2.9083954   -200.06022    27.932253    6.0298439 
   40700   -1726348.1   -29.136324    46.317878    2.8972452   -199.76598    27.901851    6.0322781 
   40800   -1726348.1   -29.039489    46.138716    2.8841461   -199.45682    27.875612    6.0364803 
   40900   -1726348.2   -28.956417    45.965018    2.8619009   -199.15838    27.850083    6.0412044 
   41000   -1726348.2   -28.867363    45.793311    2.8434237   -198.85651    27.822798    6.0455656 
   41100   -1726348.2   -28.777649    45.611176    2.8262831   -198.54169    27.791709    6.0461317 
   41200   -1726348.3   -28.691445    45.445744    2.8130337   -198.24576    27.761972    6.0489422 
   41300   -1726348.3   -28.597709    45.268257    2.7930236    -197.9354    27.729402    6.0526236 
   41400   -1726348.4   -28.507528    45.091934    2.7709683   -197.61721    27.699081    6.0575051 
   41500   -1726348.4   -28.420029    44.929971    2.7534025   -197.31458    27.669198    6.0632386 
   41600   -1726348.4   -28.325912    44.760598    2.7360783   -196.99937    27.635668     6.068675 
   41700   -1726348.5   -28.226123    44.592758    2.7192985   -196.68104    27.601903    6.0765057 
   41800   -1726348.5   -28.129816     44.43844    2.7025035   -196.37177    27.571882    6.0855176 
   41900   -1726348.5   -28.027094    44.275435    2.6877023   -196.04454    27.538226    6.0951581 
   42000   -1726348.6   -27.931338    44.114639    2.6728228   -195.73423    27.506323    6.1018672 
   42100   -1726348.6     -27.8257    43.962148    2.6625517   -195.41367    27.475789    6.1074786 
   42200   -1726348.6   -27.729512    43.800625    2.6473109   -195.09287    27.445444    6.1144667 
   42300   -1726348.7   -27.635569    43.649377    2.6336236   -194.76968    27.420879     6.119971 
   42400   -1726348.7   -27.536173    43.493477     2.616145   -194.43378    27.394765     6.125092 
   42500   -1726348.7   -27.446497    43.343346    2.6046107   -194.11588     27.37357    6.1273749 
   42600   -1726348.7   -27.350971    43.180932    2.5929476   -193.78236    27.349081    6.1296601 
   42700   -1726348.8   -27.261048    43.019837    2.5785382    -193.4617    27.326425    6.1297987 
   42800   -1726348.8   -27.168585    42.863134    2.5678874   -193.13543    27.307827    6.1333776 
   42900   -1726348.8   -27.074735    42.694289    2.5499537    -192.7937    27.289692     6.134662 
   43000   -1726348.9   -26.993269     42.53232    2.5347383   -192.47775    27.271758    6.1336519 
   43100   -1726348.9   -26.909339    42.370938    2.5173798   -192.15158    27.255599    6.1335173 
   43200   -1726348.9   -26.821634    42.200796    2.4980738   -191.80903    27.238838    6.1351029 
   43300     -1726349   -26.743624    42.043334    2.4789539   -191.48895    27.223709    6.1377284 
   43400     -1726349   -26.662599    41.874661    2.4575331   -191.16141    27.207105    6.1407962 
   43500     -1726349   -26.578831    41.704953    2.4386346   -190.82611    27.187634    6.1463997 
   43600   -1726349.1    -26.49984    41.536415    2.4095927   -190.49639    27.168456    6.1516017 
   43700   -1726349.1    -26.42089    41.381262    2.3869964   -190.17451    27.151041    6.1562541 
   43800   -1726349.1   -26.340252    41.218409    2.3611048   -189.84085    27.130598    6.1623868 
   43900   -1726349.1   -26.255993      41.0432    2.3408847   -189.49873    27.108196     6.167526 
   44000   -1726349.2   -26.177608    40.868069    2.3124211   -189.16056    27.084715    6.1761263 
   44100   -1726349.2   -26.093358    40.706445    2.2925742   -188.83138     27.06074    6.1834081 
   44200   -1726349.2   -26.010979    40.536015    2.2689334   -188.49174    27.037902    6.1954007 
   44300   -1726349.3   -25.931813    40.353389    2.2387583   -188.14479    27.011687    6.2063297 
   44400   -1726349.3   -25.852514    40.185248    2.2171389   -187.82035    26.984488    6.2178313 
   44500   -1726349.4   -25.762011    40.015375    2.1981384   -187.47494      26.9563     6.229636 
   44600   -1726349.4   -25.675944    39.844428    2.1753907   -187.13281    26.929163    6.2411065 
   44700   -1726349.5   -25.589388     39.67518     2.163069    -186.7965    26.902813    6.2506408 
   44800   -1726349.5   -25.505542    39.497323    2.1370072    -186.4381    26.869701      6.26304 
   44900   -1726349.5   -25.421824    39.330239    2.1240769   -186.10416     26.84088    6.2704806 
   45000   -1726349.6   -25.335642    39.150177    2.1113204   -185.73943    26.808494    6.2763694 
   45100   -1726349.6   -25.256549    38.974059    2.0946687   -185.38108    26.779342    6.2763012 
   45200   -1726349.7   -25.172654    38.798139    2.0893284   -185.00742    26.750397    6.2775748 
   45300   -1726349.7   -25.088322    38.621318    2.0843447   -184.62724    26.722141     6.277959 
   45400   -1726349.8   -25.003625    38.456505    2.0888241   -184.25768     26.69491    6.2761672 
   45500   -1726349.8   -24.916862    38.290529    2.0989083   -183.87664    26.665416    6.2788266 
   45600   -1726349.9   -24.836449    38.123024    2.1073527   -183.50253    26.639881    6.2828065 
   45700   -1726349.9   -24.749874    37.964082    2.1204374   -183.13348    26.613878    6.2886935 
   45800     -1726350    -24.66317    37.796237    2.1336116   -182.74419    26.588551    6.2918035 
   45900     -1726350   -24.584065    37.635844    2.1550666    -182.3835    26.562418    6.3022096 
   46000     -1726350   -24.494359    37.481827    2.1842517   -182.01559    26.535693     6.313912 
   46100   -1726350.1   -24.414355    37.328785    2.2070351   -181.65011    26.505621    6.3243559 
   46200   -1726350.1   -24.330527    37.180119    2.2298887   -181.29866    26.474657     6.340644 
   46300   -1726350.2   -24.250863    37.018602    2.2511469    -180.9335    26.440903    6.3575438 
   46400   -1726350.2    -24.17419    36.869754    2.2769089   -180.59779    26.404697    6.3787698 
   46500   -1726350.3   -24.100193    36.719708    2.3007214   -180.24639    26.364988    6.4029853 
   46600   -1726350.3   -24.030907    36.569606     2.328945   -179.91127    26.319188      6.42743 
   46700   -1726350.3   -23.955652    36.426708    2.3537147    -179.5685     26.26783    6.4556342 
   46800   -1726350.4   -23.878157    36.290599    2.3810713     -179.229    26.213024    6.4855336 
   46900   -1726350.4   -23.801964    36.150899    2.4053049   -178.89258    26.156767     6.517133 
   47000   -1726350.5   -23.725023    36.011817    2.4324876   -178.54765    26.097506    6.5415837 
   47100   -1726350.5   -23.645699    35.881023    2.4641386   -178.21164    26.040347    6.5667443 
   47200   -1726350.6   -23.567589    35.746508    2.4893593   -177.86476    25.989129    6.5890743 
   47300   -1726350.6   -23.486066    35.615626    2.5113927    -177.5259    25.940992    6.6037345 
   47400   -1726350.7   -23.407141    35.473861    2.5333553   -177.17465    25.893136    6.6182988 
   47500   -1726350.7   -23.322213    35.336064    2.5523195   -176.83936    25.848181     6.633007 
   47600   -1726350.7   -23.233365    35.191488    2.5679638   -176.48698     25.80236    6.6434151 
   47700   -1726350.8   -23.156839    35.053278    2.5803971   -176.15258    25.760031    6.6556769 
   47800   -1726350.8   -23.072982    34.908392    2.5889111   -175.79842    25.717773    6.6684182 
   47900   -1726350.8   -22.994695    34.766471    2.5957682   -175.46499    25.680188    6.6794482 
   48000   -1726350.9   -22.904139    34.624396    2.6066977    -175.1105    25.646658     6.691503 
   48100   -1726350.9   -22.820054    34.483329    2.6102307   -174.76972    25.613073    6.7023069 
   48200   -1726350.9   -22.737665    34.335584    2.6138422   -174.42101    25.582264    6.7114542 
   48300     -1726351   -22.650376    34.194965    2.6158825   -174.06684    25.553328    6.7219072 
   48400     -1726351   -22.566695     34.06056    2.6172218   -173.72895    25.524134    6.7312148 
   48500     -1726351   -22.474725    33.917873    2.6228856   -173.37106    25.497435     6.743793 
   48600     -1726351   -22.391316    33.783059    2.6240539   -173.03237    25.473706    6.7502055 
   48700     -1726351   -22.305351    33.648194    2.6226528    -172.6883    25.447538    6.7576044 
   48800   -1726351.1   -22.212153    33.510009    2.6230266   -172.32707    25.423064    6.7682025 
   48900   -1726351.1   -22.128393    33.381148    2.6188405   -171.98966    25.398451    6.7784317 
   49000   -1726351.1   -22.036379    33.253836    2.6194883   -171.64648    25.378657      6.78706 
   49100   -1726351.1   -21.946057    33.121531    2.6182711   -171.28861    25.360398    6.7945482 
   49200   -1726351.2   -21.859223    32.991301    2.6146445   -170.94752    25.343902     6.801567 
   49300   -1726351.2   -21.768237    32.867003    2.6134905   -170.60676    25.325289    6.8090544 
   49400   -1726351.2   -21.674935    32.736957    2.6134189   -170.25427    25.306569    6.8168409 
   49500   -1726351.3     -21.5861    32.614113    2.6127495   -169.91499    25.286954    6.8234293 
   49600   -1726351.3   -21.495017    32.493896    2.6116689   -169.57009    25.266319    6.8296764 
   49700   -1726351.3   -21.402859    32.369503    2.6074544   -169.21506    25.243352    6.8342157 
   49800   -1726351.3   -21.320201    32.249783    2.5997999   -168.88657    25.225652    6.8364677 
   49900   -1726351.3   -21.233271     32.12703    2.5936351   -168.54217    25.206304    6.8414354 
   50000   -1726351.4    -21.14658    32.004598    2.5849326   -168.20137     25.18781    6.8475751 
   50100   -1726351.4   -21.057388    31.892653    2.5803804   -167.86611     25.17171    6.8518029 
   50200   -1726351.4   -20.962091    31.774131    2.5733976   -167.51605    25.152978    6.8537119 
   50300   -1726351.4   -20.871442    31.658184    2.5639257   -167.18592    25.132541     6.856561 
   50400   -1726351.5   -20.777208    31.544421    2.5583669   -166.84798    25.116393    6.8608398 
   50500   -1726351.5   -20.686137    31.427645    2.5581897    -166.4995    25.097957    6.8631898 
   50600   -1726351.5   -20.603151    31.316823     2.552374   -166.17501    25.082647    6.8668709 
   50700   -1726351.5   -20.513351    31.206963    2.5494435   -165.84126    25.066035    6.8704147 
   50800   -1726351.6    -20.42081    31.087215    2.5408737   -165.49922    25.054244    6.8717587 
   50900   -1726351.6   -20.333962     30.97812    2.5339628   -165.17861     25.04366     6.874257 
   51000   -1726351.6   -20.244259    30.864888    2.5231483   -164.84792    25.032883    6.8771352 
   51100   -1726351.6    -20.15345    30.747993    2.5130766   -164.50644    25.020016    6.8805943 
   51200   -1726351.6   -20.069434    30.636661     2.505424   -164.19033    25.009799    6.8842217 
   51300   -1726351.7   -19.979131    30.525824    2.4950596   -163.86165    24.999411    6.8860555 
   51400   -1726351.7   -19.891645    30.406349    2.4851193   -163.52334     24.98663    6.8857767 
   51500   -1726351.7   -19.808585    30.300145    2.4790012   -163.20675    24.976717    6.8867056 
   51600   -1726351.7   -19.724842     30.19236    2.4736977   -162.88102    24.965193    6.8866572 
   51700   -1726351.7   -19.636811    30.077971    2.4631687   -162.54261    24.954842      6.88791 
   51800   -1726351.8   -19.555053     29.96271    2.4554146   -162.22287    24.945791    6.8879542 
   51900   -1726351.8   -19.466082    29.857203     2.447243   -161.89996    24.938341    6.8880041 
   52000   -1726351.8   -19.378732    29.746288    2.4391571   -161.56737    24.932257    6.8889012 
   52100   -1726351.8   -19.293638    29.635018    2.4253056   -161.24161    24.923802    6.8876396 
   52200   -1726351.8   -19.209519    29.530723    2.4168719   -160.92658    24.915856    6.8862015 
   52300   -1726351.9   -19.121881    29.420268    2.4074748   -160.59904    24.909049    6.8864416 
   52400   -1726351.9   -19.038806    29.306425    2.3937136   -160.27366    24.900246    6.8851909 
   52500   -1726351.9   -18.959395    29.196647    2.3839924   -159.95847    24.893152    6.8834862 
   52600   -1726351.9    -18.87465    29.082277    2.3743402   -159.63041     24.88638    6.8792985 
   52700   -1726351.9   -18.797885    28.964578    2.3643757   -159.30901    24.880859    6.8752317 
   52800     -1726352   -18.719071    28.847956    2.3521762   -158.99478    24.874647     6.872978 
   52900     -1726352   -18.635046    28.736313    2.3406041    -158.6666    24.870212    6.8681337 
   53000     -1726352   -18.554116    28.624544    2.3324711   -158.35105    24.866708    6.8614621 
   53100     -1726352   -18.473774    28.513099    2.3235637   -158.03289    24.862313    6.8559781 
   53200     -1726352   -18.388692    28.396585    2.3111293   -157.70375    24.857633    6.8496186 
   53300   -1726352.1   -18.314348    28.284029    2.3034371   -157.38662    24.853193    6.8421329 
   53400   -1726352.1   -18.236737    28.176053    2.2920426   -157.06911    24.850111    6.8366448 
   53500   -1726352.1   -18.153678    28.064562    2.2771411   -156.74234    24.847143    6.8307909 
   53600   -1726352.1   -18.074229    27.950585     2.263374   -156.41787    24.840789    6.8217759 
   53700   -1726352.1   -17.998373    27.842688    2.2512846   -156.10789    24.833032    6.8118536 
   53800   -1726352.2   -17.921212    27.734442    2.2374983   -155.79095    24.826322    6.8023572 
   53900   -1726352.2   -17.842147    27.626074    2.2241328   -155.46255    24.819704    6.7908592 
   54000   -1726352.2   -17.761249    27.513772    2.2079048   -155.13329    24.814994    6.7811792 
   54100   -1726352.2   -17.687407    27.413529    2.1951434   -154.82562    24.810909     6.771034 
   54200   -1726352.2    -17.61385    27.310475    2.1795871   -154.50837    24.809185    6.7620605 
   54300   -1726352.3   -17.539692    27.204826    2.1636858   -154.17982    24.805755    6.7491879 
   54400   -1726352.3   -17.469945    27.098691     2.150028   -153.86123     24.80321    6.7363476 
   54500   -1726352.3   -17.402885     26.99988    2.1379359   -153.54894    24.801584    6.7234478 
   54600   -1726352.3   -17.338915    26.894886    2.1219845   -153.21694    24.802082    6.7133708 
   54700   -1726352.4   -17.276895    26.791391    2.1073801   -152.89495    24.803979    6.6989329 
   54800   -1726352.4   -17.219226    26.694117    2.0899977   -152.58017    24.806417    6.6809776 
   54900   -1726352.4   -17.157937    26.603354     2.076092   -152.24946    24.811435    6.6601474 
   55000   -1726352.5   -17.100543    26.509924    2.0583782   -151.92751    24.810991    6.6403949 
   55100   -1726352.5    -17.04664    26.419079    2.0466705    -151.6057    24.813902     6.618814 
   55200   -1726352.6   -17.001387    26.319557    2.0340353   -151.27229    24.817631    6.5972469 
   55300   -1726352.6   -16.955787    26.230651     2.026916   -150.95124    24.820034    6.5737115 
   55400   -1726352.6   -16.909939    26.136391    2.0291669   -150.61201    24.822672    6.5490071 
   55500   -1726352.7   -16.874457    26.039815    2.0325873    -150.2949    24.822492    6.5280556 
   55600   -1726352.7   -16.837211    25.942677    2.0462846    -149.9582    24.824358    6.5036035 
   55700   -1726352.8   -16.806979    25.841152    2.0578766   -149.63436    24.819235    6.4821611 
   55800   -1726352.8   -16.770402    25.736909    2.0848142   -149.29366    24.817578    6.4607354 
   55900   -1726352.9    -16.74205    25.633311    2.1120446   -148.97239    24.811424    6.4450931 
   56000   -1726352.9   -16.707363    25.522727    2.1560853   -148.63344    24.804874    6.4304781 
   56100     -1726353    -16.66732    25.408693    2.1983078   -148.31256    24.797782    6.4185257 
   56200     -1726353   -16.630301    25.296996    2.2476676   -147.97862    24.793418    6.4087566 
   56300     -1726353   -16.594577    25.183133    2.2984834   -147.65953     24.78768    6.4048335 
   56400     -1726353   -16.550506     25.06466    2.3435388    -147.3343    24.778884    6.3990835 
   56500   -1726353.1   -16.501381    24.945358    2.3907725   -147.01628    24.769475    6.3964258 
   56600   -1726353.1   -16.456095    24.822568     2.431106   -146.70073    24.758949    6.3960143 
   56700   -1726353.1    -16.40536    24.696081    2.4765617    -146.3748    24.747012    6.3953692 
   56800   -1726353.2   -16.354985    24.572428     2.518682   -146.07429    24.737053     6.393502 
   56900   -1726353.2   -16.301069    24.436213    2.5584065   -145.76035    24.727792    6.3944779 
   57000   -1726353.3   -16.246717     24.29591    2.5979959   -145.44671    24.715741    6.3988455 
   57100   -1726353.3   -16.198901    24.149352    2.6338382   -145.14529    24.705044    6.4031675 
   57200   -1726353.3   -16.140869    23.990974     2.669401   -144.82877    24.695519    6.4099658 
   57300   -1726353.4   -16.087699    23.832671    2.7019326   -144.52601    24.686955    6.4228019 
   57400   -1726353.4    -16.02451    23.672324    2.7374336   -144.21695    24.678633    6.4414485 
   57500   -1726353.5   -15.954161    23.513662    2.7703359   -143.91453    24.668797    6.4588104 
   57600   -1726353.5   -15.881706     23.35741    2.8009657   -143.62086    24.660275    6.4785895 
   57700   -1726353.6    -15.80188    23.200613    2.8249876   -143.32178    24.652152    6.4947831 
   57800   -1726353.6   -15.725452    23.068549    2.8493964   -143.03947    24.643421    6.5083491 
   57900   -1726353.6   -15.642443    22.941081    2.8778348   -142.74466     24.63018    6.5190758 
   58000   -1726353.7   -15.564733    22.825929    2.9035807   -142.45661     24.61924    6.5256198 
   58100   -1726353.7   -15.489413    22.711162    2.9232246   -142.17402    24.608293     6.529371 
   58200   -1726353.7   -15.409338    22.602047     2.947846   -141.87582    24.596545    6.5338684 
   58300   -1726353.8   -15.334093    22.498356    2.9686434   -141.59807    24.586081    6.5370564 
   58400   -1726353.8   -15.253938    22.399467    2.9866964   -141.30945    24.571978     6.541156 
   58500   -1726353.8   -15.173813    22.291369    3.0011536   -141.01943    24.558804    6.5431851 
   58600   -1726353.8   -15.097026    22.194169    3.0182438   -140.74139    24.544648    6.5442446 
   58700   -1726353.8   -15.016269    22.095882    3.0343956   -140.45026    24.529517       6.5446 
   58800   -1726353.9    -14.93818    21.995591    3.0512972    -140.1654    24.516768    6.5424931 
   58900   -1726353.9   -14.865386    21.903109    3.0661011   -139.88585    24.503741    6.5418529 
   59000   -1726353.9   -14.786147    21.808424    3.0836177   -139.59519    24.489573    6.5412558 
   59100   -1726353.9    -14.71544    21.713217     3.093533   -139.31871     24.47398    6.5414989 
   59200   -1726353.9   -14.639329    21.619747    3.1059143   -139.04112    24.461036    6.5428313 
   59300     -1726354   -14.562263    21.524109    3.1184175   -138.75344    24.445989    6.5437287 
   59400     -1726354   -14.489304    21.430818    3.1271784    -138.4838    24.428194    6.5437959 
   59500     -1726354   -14.414301    21.336406    3.1366293   -138.20075    24.409975    6.5450799 
   59600     -1726354   -14.341809    21.237574    3.1424039   -137.92107    24.391137     6.546937 
   59700     -1726354   -14.269469    21.147259    3.1481893   -137.65058    24.374031    6.5452839 
   59800   -1726354.1   -14.193845    21.049751    3.1538782   -137.37131    24.355103    6.5446115 
   59900   -1726354.1   -14.123949    20.950171    3.1584181   -137.09993      24.3341     6.545542 
   60000   -1726354.1   -14.050578     20.85541    3.1637753   -136.82903    24.312189    6.5469737 
   60100   -1726354.1   -13.976115    20.758927    3.1693864   -136.54517    24.290726    6.5460738 
   60200   -1726354.1   -13.908136     20.66215    3.1680517   -136.28192    24.270338     6.547198 
   60300   -1726354.2    -13.83592    20.569026    3.1689614   -136.00854    24.248865    6.5481829 
   60400   -1726354.2   -13.764072    20.471401    3.1671095   -135.72943    24.226168    6.5502757 
   60500   -1726354.2    -13.69511    20.376729    3.1647432   -135.46396    24.201882    6.5521954 
   60600   -1726354.2      -13.624    20.286469    3.1632565    -135.2012    24.177683    6.5539783 
   60700   -1726354.2   -13.551536    20.194395    3.1590818   -134.92467    24.152128    6.5581395 
   60800   -1726354.3    -13.48202    20.103493    3.1564146   -134.66655    24.127467    6.5583946 
   60900   -1726354.3   -13.412979    20.011879    3.1538898   -134.40742    24.102872    6.5586099 
   61000   -1726354.3   -13.339376    19.919661    3.1515809   -134.13595    24.077552    6.5617285 
   61100   -1726354.3   -13.270665    19.830237    3.1467391   -133.87843    24.051206    6.5616002 
   61200   -1726354.3   -13.203315    19.745729    3.1432242   -133.62614     24.02398    6.5627516 
   61300   -1726354.3   -13.132742    19.663704     3.145119   -133.36286    23.994753     6.562871 
   61400   -1726354.4   -13.065845    19.582646    3.1399282   -133.11764     23.96772    6.5637771 
   61500   -1726354.4   -12.991996     19.50854    3.1384966    -132.8639    23.943943    6.5630075 
   61600   -1726354.4     -12.9221    19.426452    3.1321851   -132.61118    23.914992    6.5625712 
   61700   -1726354.4   -12.858296    19.347288    3.1272964   -132.36185    23.888996    6.5627066 
   61800   -1726354.5   -12.790375    19.268057    3.1255905    -132.1049    23.859293    6.5626109 
   61900   -1726354.5   -12.721737    19.192814    3.1239576   -131.86628    23.836636    6.5609536 
   62000   -1726354.5   -12.653867    19.117364    3.1230938   -131.61379    23.811432     6.561271 
   62100   -1726354.5   -12.589481    19.042344    3.1223891   -131.36429     23.78657    6.5605549 
   62200   -1726354.5   -12.524096    18.970841    3.1221432   -131.11936     23.76513    6.5607797 
   62300   -1726354.5   -12.455709    18.892218    3.1212719   -130.86012     23.74381    6.5622093 
   62400   -1726354.6   -12.399651    18.818231     3.116825   -130.62111    23.725835    6.5629515 
   62500   -1726354.6   -12.343888      18.7416    3.1182061    -130.3761    23.709132    6.5625757 
   62600   -1726354.6   -12.285525    18.659474    3.1146331   -130.11998    23.692746    6.5620982 
   62700   -1726354.6   -12.230443    18.579386    3.1086352    -129.8782    23.679648    6.5606024 
   62800   -1726354.7    -12.17706    18.504768    3.1039925   -129.62967     23.66645    6.5593805 
   62900   -1726354.7   -12.119692    18.422553    3.0954267   -129.37467    23.653386     6.561065 
   63000   -1726354.7    -12.06709    18.338411    3.0848492   -129.13511    23.640434    6.5622024 
   63100   -1726354.7   -12.018241    18.253745      3.07342   -128.88925    23.629455    6.5649644 
   63200   -1726354.7   -11.968968     18.17265    3.0619401   -128.63289    23.616727    6.5649945 
   63300   -1726354.8   -11.917692    18.090706    3.0522641   -128.38905    23.604686    6.5612172 
   63400   -1726354.8   -11.862901    18.012302    3.0425741   -128.14105    23.591126    6.5587059 
   63500   -1726354.8   -11.808829    17.924688    3.0283288   -127.88072    23.578803     6.556564 
   63600   -1726354.8   -11.758084      17.8427    3.0087715   -127.63695    23.570499    6.5522626 
   63700   -1726354.9   -11.706001     17.76218    2.9947313   -127.38783    23.562413    6.5506319 
   63800   -1726354.9   -11.654094    17.672352    2.9711605   -127.12704     23.54952    6.5478412 
   63900   -1726354.9   -11.603275     17.59333    2.9512035   -126.88443    23.540029    6.5446081 
   64000   -1726354.9   -11.549174    17.509456    2.9275032   -126.62822    23.526987    6.5444865 
   64100   -1726354.9    -11.49864    17.420853    2.9032502   -126.37456    23.516085    6.5427345 
   64200     -1726355   -11.443614    17.333977    2.8767843    -126.1227    23.507172    6.5406689 
   64300     -1726355   -11.387438    17.238019    2.8419669   -125.85818    23.491594    6.5362607 
   64400     -1726355   -11.337967     17.14402    2.8044267    -125.6045    23.474088    6.5332295 
   64500     -1726355   -11.291907    17.039606    2.7607739   -125.33738    23.448582     6.529505 
   64600   -1726355.1   -11.251743    16.930356     2.710284   -125.07783    23.421755    6.5270082 
   64700   -1726355.1   -11.215527    16.800016    2.6401778    -124.7984    23.385567    6.5228413 
   64800   -1726355.1   -11.187751    16.650821    2.5502683   -124.52921     23.34263    6.5218931 
   64900   -1726355.2   -11.158333    16.477924    2.4269411    -124.2484    23.285431    6.5175607 
   65000   -1726355.3   -11.138088      16.2882    2.2783666   -123.97057    23.226647    6.5078857 
   65100   -1726355.4   -11.123943    16.056117    2.0945212   -123.68686    23.163311    6.4946304 
   65200   -1726355.5   -11.089653    15.822398    1.9046211   -123.41641    23.106887    6.4793362 
   65300   -1726355.6    -11.04487    15.604835    1.7279226   -123.15628    23.058232    6.4695831 
   65400   -1726355.8   -10.972474    15.427039    1.5988476   -122.91794    23.020723    6.4678305 
   65500   -1726355.9   -10.881933    15.292649    1.5109286   -122.69139    22.990441    6.4701551 
   65600   -1726355.9   -10.787967    15.202505    1.4720932   -122.47179    22.967059    6.4705144 
   65700     -1726356   -10.691124    15.134839    1.4509725   -122.24995    22.944137    6.4700767 
   65800     -1726356   -10.586427    15.083722    1.4450958   -122.01829    22.922729    6.4618379 
   65900     -1726356   -10.490461    15.037204    1.4403047    -121.7953    22.901352    6.4555131 
   66000     -1726356   -10.390672     14.99606    1.4422465   -121.56431    22.879153    6.4490659 
   66100   -1726356.1   -10.292446    14.965352    1.4468329    -121.3422    22.862464    6.4415782 
   66200   -1726356.1   -10.200486    14.931514    1.4535877   -121.11479    22.841703    6.4340204 
   66300   -1726356.1   -10.106144    14.895828    1.4613046    -120.8857    22.822572    6.4255772 
   66400   -1726356.1   -10.019712    14.856598    1.4674695   -120.66258    22.804092    6.4182471 
   66500   -1726356.1   -9.9320447     14.81255    1.4709023   -120.42999    22.782799     6.410692 
   66600   -1726356.1   -9.8479291    14.775086    1.4758759    -120.2095     22.76254    6.4024254 
   66700   -1726356.2   -9.7604891    14.734397    1.4827315   -119.98065    22.740425    6.3940114 
   66800   -1726356.2   -9.6722765    14.699126    1.4902645   -119.75952    22.718105    6.3857664 
   66900   -1726356.2   -9.5898988    14.656971    1.4945735     -119.531    22.694968    6.3778022 
   67000   -1726356.2   -9.5026631    14.617701    1.4993113   -119.30767    22.673723     6.369483 
   67100   -1726356.2   -9.4198015    14.571267    1.5052666   -119.07577    22.651976     6.361729 
   67200   -1726356.2   -9.3406974    14.529253    1.5094508   -118.85473    22.630519    6.3560243 
   67300   -1726356.2   -9.2590736    14.484231    1.5120331   -118.61842    22.608922    6.3487879 
   67400   -1726356.3   -9.1843605    14.439707    1.5175151   -118.39786     22.59046    6.3403527 
   67500   -1726356.3   -9.1030056    14.391628    1.5278709   -118.16241    22.569601    6.3323728 
   67600   -1726356.3   -9.0331977    14.343771    1.5296711   -117.93957    22.550239     6.324878 
   67700   -1726356.3   -8.9530298    14.297555    1.5353362   -117.70745     22.52887    6.3165347 
   67800   -1726356.3   -8.8782307    14.254753    1.5396304   -117.48567    22.511095    6.3069174 
   67900   -1726356.3   -8.8030551    14.210512    1.5444127    -117.2557    22.492976    6.2970991 
   68000   -1726356.3   -8.7304839    14.170021    1.5494886   -117.03036    22.474651    6.2891514 
   68100   -1726356.4   -8.6579411    14.124311    1.5522162   -116.79949    22.455704    6.2789271 
   68200   -1726356.4   -8.5875087     14.07478    1.5518857   -116.57482    22.437729    6.2692954 
   68300   -1726356.4   -8.5142002    14.021987    1.5502544   -116.34703     22.41999     6.259336 
   68400   -1726356.4   -8.4439013    13.968781    1.5475598   -116.12174    22.399114    6.2495911 
   68500   -1726356.4   -8.3710327    13.917103    1.5456205   -115.89494    22.376827    6.2411217 
   68600   -1726356.4   -8.2974179    13.860733    1.5412858   -115.66864     22.35519    6.2308135 
   68700   -1726356.5   -8.2268001    13.803014    1.5379185     -115.441    22.333522    6.2218751 
   68800   -1726356.5   -8.1557586     13.73766    1.5321622   -115.21369    22.312094    6.2120306 
   68900   -1726356.5    -8.083431    13.671257    1.5235102    -114.9871    22.288057    6.2015831 
   69000   -1726356.5   -8.0100822    13.600545    1.5128058   -114.76024    22.262951    6.1923689 
   69100   -1726356.5   -7.9385195    13.530008    1.4984882   -114.53687    22.238112    6.1848615 
   69200   -1726356.5   -7.8659034    13.450822     1.478816    -114.3112    22.211336    6.1781929 
   69300   -1726356.5   -7.7919926    13.378408    1.4653196   -114.09146    22.180989    6.1714245 
   69400   -1726356.6   -7.7213944    13.296834    1.4468779   -113.86144    22.149013    6.1644389 
   69500   -1726356.6   -7.6524785    13.219385    1.4279445   -113.64435    22.117837    6.1602612 
   69600   -1726356.6   -7.5776786    13.132564    1.4065774   -113.41946    22.082505    6.1569675 
   69700   -1726356.6   -7.5059932    13.045473    1.3841211   -113.20659    22.046527    6.1550506 
   69800   -1726356.6   -7.4341339    12.959585    1.3651455   -112.98865    22.008217    6.1540753 
   69900   -1726356.7   -7.3590168    12.869551    1.3433277   -112.76812    21.967859    6.1537057 
   70000   -1726356.7   -7.2896815    12.783458    1.3197196   -112.55463    21.925634    6.1544466 
   70100   -1726356.7   -7.2163186      12.6908    1.3004437   -112.33264    21.877923    6.1551051 
   70200   -1726356.7   -7.1467502      12.6004    1.2772999   -112.11803    21.832263    6.1560099 
   70300   -1726356.7   -7.0788562    12.509387    1.2585883   -111.89986    21.781704    6.1580671 
   70400   -1726356.7   -7.0119327    12.419176    1.2433748   -111.68355    21.730607    6.1604685 
   70500   -1726356.8   -6.9527626    12.333134    1.2255292   -111.48421    21.681763    6.1606416 
   70600   -1726356.8   -6.8830221    12.245479    1.2145168   -111.27301     21.62897    6.1605648 
   70700   -1726356.8   -6.8175912    12.167619    1.2051841   -111.07735    21.580623    6.1572515 
   70800   -1726356.8   -6.7449826    12.086734    1.1990296   -110.87748    21.528558    6.1544538 
   70900   -1726356.8   -6.6801988    12.009463    1.1921834   -110.68057    21.477125    6.1497525 
   71000   -1726356.8   -6.6131066    11.937721    1.1897075   -110.48775     21.42707    6.1447526 
   71100   -1726356.8   -6.5422731    11.868078    1.1909831   -110.29413    21.373807    6.1395813 
   71200   -1726356.9   -6.4706928    11.794305    1.1914855   -110.09342    21.319008    6.1337612 
   71300   -1726356.9   -6.4018337    11.723995    1.1930453   -109.89785    21.260226    6.1259827 
   71400   -1726356.9   -6.3345711    11.663502    1.1963489   -109.70993    21.205673    6.1205564 
   71500   -1726356.9   -6.2675899    11.602817    1.1991447   -109.52335    21.150517    6.1146836 
   71600   -1726356.9    -6.197259     11.54293    1.2059679   -109.33575    21.093002     6.106908 
   71700   -1726356.9   -6.1296665     11.48427    1.2121088   -109.14632    21.034713    6.1000808 
   71800   -1726356.9   -6.0608924    11.432945    1.2196395   -108.96727    20.977532    6.0936119 
   71900     -1726357   -5.9909899    11.383529    1.2255939   -108.78823    20.919713     6.086959 
   72000     -1726357   -5.9187844    11.326823    1.2302985   -108.60632    20.860395    6.0797774 
   72100     -1726357   -5.8494265    11.272548    1.2351553   -108.42955    20.801839    6.0736067 
   72200     -1726357   -5.7809805    11.223486    1.2417712   -108.25896    20.740721    6.0670444 
   72300     -1726357   -5.7104709    11.170052    1.2461678   -108.08403    20.678655    6.0602971 
   72400     -1726357    -5.644724    11.114929    1.2468645   -107.91294    20.616644    6.0529731 
   72500     -1726357   -5.5826397     11.06442    1.2499641   -107.75011    20.556278    6.0488986 
   72600   -1726357.1   -5.5156733    11.019632    1.2547656   -107.57926     20.49023     6.046008 
   72700   -1726357.1   -5.4500983    10.973276    1.2557225   -107.41993    20.427987    6.0449808 
   72800   -1726357.1   -5.3852393    10.925855    1.2578694   -107.25951     20.36297    6.0428165 
   72900   -1726357.1   -5.3229441    10.877063    1.2578998   -107.09687    20.292847    6.0435377 
   73000   -1726357.1   -5.2595272    10.827846    1.2598616    -106.9381    20.225276    6.0454432 
   73100   -1726357.1   -5.1973387    10.773223    1.2606844   -106.77218    20.153626    6.0511151 
   73200   -1726357.2   -5.1385654    10.726662    1.2619919   -106.61981     20.08532    6.0535743 
   73300   -1726357.2   -5.0732671    10.680625    1.2638986   -106.46003    20.018083    6.0595479 
   73400   -1726357.2   -5.0075754    10.624557    1.2632936    -106.2962    19.951782    6.0648317 
   73500   -1726357.2   -4.9469705    10.570206    1.2606872    -106.1341    19.887808    6.0668048 
   73600   -1726357.2   -4.8862233    10.520274    1.2585919   -105.97451    19.823609    6.0713939 
   73700   -1726357.2   -4.8199076     10.46226    1.2541804   -105.80696    19.760481    6.0735034 
   73800   -1726357.2   -4.7579931      10.4074    1.2475873   -105.65004    19.699756    6.0753467 
   73900   -1726357.3   -4.6956527    10.351543    1.2415321   -105.48344    19.640179    6.0764603 
   74000   -1726357.3    -4.631168    10.292017    1.2335115   -105.31522    19.580818    6.0747553 
   74100   -1726357.3   -4.5693204    10.238057    1.2316666   -105.15377    19.526162      6.07376 
   74200   -1726357.3   -4.5012803    10.183185    1.2241796   -104.98721    19.465313    6.0716439 
   74300   -1726357.3   -4.4398972    10.129044    1.2164619   -104.82401    19.408091    6.0681309 
   74400   -1726357.3   -4.3763282    10.081501    1.2094701    -104.6574    19.351026    6.0616379 
   74500   -1726357.3   -4.3134415    10.034537    1.2003182   -104.48309    19.292395    6.0562617 
   74600   -1726357.4   -4.2527456    9.9920315    1.1923738   -104.31759    19.236664    6.0480557 
   74700   -1726357.4   -4.1871291     9.956854    1.1873446     -104.149    19.175632    6.0377926 
   74800   -1726357.4   -4.1191125    9.9294659    1.1809924    -103.9749    19.112817    6.0291245 
   74900   -1726357.4   -4.0580278    9.9040087    1.1778498   -103.81175    19.051812    6.0207476 
   75000   -1726357.4   -3.9920408    9.8795467    1.1761025   -103.64518    18.986746    6.0112298 
   75100   -1726357.4   -3.9237508    9.8515241    1.1753869     -103.472    18.920869     6.000851 
   75200   -1726357.5   -3.8577512    9.8241249    1.1783741   -103.30738    18.858403    5.9922912 
   75300   -1726357.5   -3.7891117     9.798801    1.1795514   -103.14155    18.797368    5.9831612 
   75400   -1726357.5   -3.7184998    9.7694439    1.1760618   -102.97085    18.732008    5.9759663 
   75500   -1726357.5   -3.6476398    9.7393197    1.1738661   -102.79641    18.665535     5.966215 
   75600   -1726357.5   -3.5829109    9.7126096    1.1758562    -102.6365    18.604257    5.9596836 
   75700   -1726357.5   -3.5143372    9.6790037    1.1787725   -102.47079     18.54033    5.9527833 
   75800   -1726357.5   -3.4489685     9.646493    1.1799184   -102.30463    18.474519    5.9481121 
   75900   -1726357.5   -3.3794906    9.6163183    1.1827652   -102.13384    18.408353    5.9415805 
   76000   -1726357.5   -3.3144739    9.5824751    1.1842029    -101.9736    18.346071    5.9354042 
   76100   -1726357.6   -3.2458448     9.546882    1.1865897   -101.81128    18.280536    5.9314464 
   76200   -1726357.6   -3.1805039    9.5036198    1.1873668    -101.6421    18.214129    5.9247693 
   76300   -1726357.6   -3.1165506    9.4620642    1.1883176    -101.4807    18.149115    5.9198436 
   76400   -1726357.6   -3.0538264    9.4159589    1.1852077   -101.31568    18.083589    5.9149154 
   76500   -1726357.6   -2.9892909    9.3688468    1.1825266   -101.14642     18.01694    5.9072685 
   76600   -1726357.6   -2.9256593    9.3241986     1.181386   -100.98847    17.953522    5.9031535 
   76700   -1726357.6   -2.8606595    9.2799007    1.1812558   -100.82323     17.88754    5.8981077 
   76800   -1726357.6   -2.7920856    9.2345845    1.1822952   -100.65863    17.821065    5.8946627 
   76900   -1726357.6   -2.7269944    9.1847933    1.1808036   -100.49638    17.759745    5.8903034 
   77000   -1726357.6   -2.6638654    9.1386208    1.1773027   -100.33402    17.693642    5.8847789 
   77100   -1726357.7   -2.6009944     9.082544    1.1740062   -100.16894    17.626059    5.8787832 
   77200   -1726357.7     -2.54399    9.0282038    1.1716204   -100.01018    17.560801    5.8746099 
   77300   -1726357.7   -2.4819255    8.9843108    1.1681805    -99.85602    17.497267     5.872457 
   77400   -1726357.7   -2.4169179     8.937285    1.1682776   -99.700442    17.433515    5.8696458 
   77500   -1726357.7   -2.3543929     8.891443    1.1690834   -99.540845    17.367825    5.8658564 
   77600   -1726357.7   -2.2896377    8.8422395    1.1689886   -99.377773    17.299636    5.8617406 
   77700   -1726357.7   -2.2275014    8.7925995    1.1672875   -99.221041      17.2352    5.8560843 
   77800   -1726357.7   -2.1682886    8.7453504    1.1694788   -99.068733    17.171693    5.8503425 
   77900   -1726357.7    -2.105211    8.6996283      1.17337   -98.908983    17.105795    5.8441462 
   78000   -1726357.7   -2.0464257    8.6502244    1.1759657   -98.749817    17.040021    5.8366794 
   78100   -1726357.8   -1.9877275    8.6087999    1.1807588    -98.59998    16.976453    5.8305412 
[...]
  190200   -1726367.1    8.2422918   -9.6966808   -1.2538522  -0.16774449   -44.079668    6.5266432 
  190300   -1726367.1    8.2341582   -9.6882726   -1.2489962  -0.13623839   -44.097838    6.5250928 
  190400   -1726367.1    8.2276072   -9.6790548   -1.2445442  -0.10431521   -44.115544    6.5241079 
  190500   -1726367.1    8.2204398   -9.6699202   -1.2408319 -0.072756433   -44.132583    6.5229957 
  190600   -1726367.1     8.212886   -9.6620155   -1.2376304 -0.041396131   -44.151962    6.5213231 
  190700   -1726367.1    8.2060464   -9.6527684   -1.2332577 -0.0098062482   -44.170249    6.5198822 
  190800   -1726367.1    8.1984238   -9.6438863    -1.229139  0.021381317   -44.188386    6.5185357 
  190900   -1726367.1    8.1912826   -9.6357663   -1.2265059  0.053226127   -44.206374    6.5173022 
  191000   -1726367.1    8.1846402   -9.6285173   -1.2227218  0.084884626   -44.224583    6.5158004 
  191100   -1726367.1    8.1779404   -9.6196285   -1.2196231   0.11607301    -44.24281    6.5143734 
  191200   -1726367.1    8.1737286   -9.6106231   -1.2163084   0.14609751    -44.26036    6.5130103 
  191300   -1726367.1    8.1679676   -9.6022858   -1.2124326   0.17664272   -44.278433    6.5115816 
  191400   -1726367.1    8.1617284    -9.594255   -1.2098185   0.20686961   -44.296947     6.510072 
  191500   -1726367.1    8.1548634   -9.5828795   -1.2059403   0.23788027    -44.31549    6.5081259 
  191600   -1726367.1    8.1481347   -9.5746023   -1.2025052   0.26889163   -44.334468    6.5062602 
  191700   -1726367.1       8.1415    -9.567929   -1.1996399   0.29950671   -44.352941    6.5043825 
  191800   -1726367.1    8.1345472   -9.5621878    -1.196966   0.32999594   -44.371141    6.5027798 
  191900   -1726367.1    8.1289061   -9.5556373   -1.1931687   0.36092264   -44.389272     6.501047 
  192000   -1726367.1    8.1233832   -9.5480733   -1.1888583   0.39159719   -44.407143     6.498899 
  192100   -1726367.1    8.1167712   -9.5417747   -1.1857439   0.42205985   -44.424591    6.4966895 
  192200   -1726367.1    8.1111294   -9.5360404   -1.1816116   0.45443425    -44.44248    6.4949373 
  192300   -1726367.1     8.106969   -9.5307332   -1.1786287   0.48555692   -44.459708     6.493543 
  192400   -1726367.1    8.1032606   -9.5245504   -1.1756608   0.51555102   -44.477671    6.4919157 
  192500   -1726367.1    8.0993513   -9.5179748   -1.1713559   0.54643357   -44.495443    6.4898912 
  192600   -1726367.1    8.0958669   -9.5124199   -1.1684504   0.57658439   -44.514017    6.4878882 
  192700   -1726367.1    8.0954757   -9.5062257   -1.1655548   0.60720019   -44.532316    6.4856609 
  192800   -1726367.1    8.0916514   -9.5027253   -1.1644122   0.63618015   -44.551367    6.4834872 
  192900   -1726367.1    8.0891296   -9.4991752    -1.161441   0.66604742   -44.569418    6.4810392 
  193000   -1726367.1    8.0877005   -9.4960853   -1.1592998   0.69602238   -44.588644     6.479248 
  193100   -1726367.1     8.087192   -9.4931833   -1.1566023   0.72607913   -44.607062    6.4755554 
  193200   -1726367.1    8.0857709   -9.4892474   -1.1530593   0.75627768   -44.625907    6.4734098 
  193300   -1726367.1    8.0838639   -9.4861995   -1.1505392   0.78604903   -44.645251    6.4706933 
  193400   -1726367.1    8.0820993   -9.4819777   -1.1476275   0.81550692   -44.665372     6.468138 
  193500   -1726367.1    8.0817297   -9.4809892   -1.1451255   0.84580671     -44.6852    6.4655831 
  193600   -1726367.1    8.0808134   -9.4805154   -1.1427313   0.87510996   -44.704845    6.4621815 
  193700   -1726367.1    8.0787004   -9.4796839   -1.1415376   0.90484971   -44.724652    6.4595685 
  193800   -1726367.1    8.0779266   -9.4815898   -1.1413139   0.93417178   -44.743271    6.4553844 
  193900   -1726367.1    8.0789681   -9.4818608   -1.1391334   0.96294144   -44.762603    6.4521714 
  194000   -1726367.1    8.0778538   -9.4834933   -1.1377194   0.99202121    -44.78341    6.4486337 
  194100   -1726367.1    8.0783786   -9.4867693   -1.1377085    1.0217729   -44.803805    6.4451835 
  194200   -1726367.1    8.0739593   -9.4889434   -1.1369401    1.0505028   -44.825492    6.4440051 
  194300   -1726367.1    8.0732517   -9.4910483   -1.1366161    1.0802451   -44.846879    6.4417535 
  194400   -1726367.1    8.0729322   -9.4952393   -1.1370662    1.1102026   -44.869676    6.4390651 
  194500   -1726367.1    8.0740552   -9.4987979   -1.1362905     1.140393   -44.892975     6.436509 
  194600   -1726367.1    8.0768751   -9.5028633   -1.1347568    1.1703562   -44.915997    6.4334855 
  194700   -1726367.1    8.0792215   -9.5080103   -1.1335244    1.2003803   -44.940032     6.430544 
  194800   -1726367.2    8.0814157   -9.5143872    -1.132131    1.2306606   -44.963849    6.4273047 
  194900   -1726367.2    8.0830174   -9.5232608   -1.1316904    1.2604926   -44.987838    6.4234596 
  195000   -1726367.2    8.0876858   -9.5296364   -1.1309016    1.2898343   -45.012027     6.420593 
  195100   -1726367.2    8.0917189   -9.5411764   -1.1306324    1.3205121   -45.038362    6.4173263 
  195200   -1726367.2    8.0975264   -9.5502627   -1.1291421    1.3502199   -45.064121    6.4140821 
  195300   -1726367.2    8.1016862   -9.5603722   -1.1275842    1.3811723   -45.090788    6.4101214 
  195400   -1726367.2    8.1063659   -9.5726748   -1.1272683    1.4119481   -45.116293    6.4060647 
  195500   -1726367.2    8.1110715   -9.5874945   -1.1280469    1.4433112   -45.144323    6.4016588 
  195600   -1726367.2     8.116785   -9.6018451   -1.1278281    1.4749535   -45.172709    6.3965015 
  195700   -1726367.2    8.1214734   -9.6173403   -1.1290639    1.5070812   -45.202005    6.3913123 
  195800   -1726367.2    8.1272583   -9.6326448   -1.1305108    1.5402168   -45.231701     6.386159 
  195900   -1726367.2    8.1324973   -9.6560713   -1.1334943    1.5701999   -45.261874    6.3810658 
  196000   -1726367.2    8.1404511   -9.6748276   -1.1352679    1.6026644   -45.295206    6.3763658 
  196100   -1726367.2    8.1470083   -9.6970092   -1.1390502    1.6360393   -45.330173    6.3714771 
  196200   -1726367.2    8.1540569   -9.7193114   -1.1407708    1.6707154   -45.367285    6.3665377 
  196300   -1726367.2    8.1623386   -9.7423469    -1.143746    1.7052193    -45.40512     6.359969 
  196400   -1726367.2     8.172594   -9.7654803   -1.1459663     1.740899   -45.445213    6.3529047 
  196500   -1726367.2    8.1831856   -9.7907489   -1.1487033    1.7770228   -45.487463    6.3468966 
  196600   -1726367.2      8.19442   -9.8165481   -1.1508742    1.8133766   -45.530097    6.3399359 
  196700   -1726367.2    8.2065502   -9.8431753   -1.1564654    1.8523072   -45.572204    6.3313008 
  196800   -1726367.2    8.2195082   -9.8727471   -1.1601787    1.8906646   -45.615956    6.3216869 
  196900   -1726367.2    8.2368676   -9.8966276   -1.1648309    1.9293049    -45.65853    6.3083125 
  197000   -1726367.2    8.2559527   -9.9223581   -1.1676886    1.9674555   -45.702147    6.2956222 
  197100   -1726367.2    8.2742563   -9.9531477   -1.1731511    2.0052323   -45.743817    6.2796417 
  197200   -1726367.3    8.2952531   -9.9820516   -1.1779677    2.0429237   -45.783971    6.2618219 
  197300   -1726367.3    8.3153392   -10.015048   -1.1862489    2.0804289   -45.822597    6.2419332 
  197400   -1726367.3    8.3357634   -10.052677   -1.1977081     2.118547   -45.858463    6.2199732 
  197500   -1726367.3    8.3554441    -10.09308   -1.2106843    2.1618632   -45.892125    6.1979285 
  197600   -1726367.3    8.3732202   -10.126033   -1.2248224    2.2045676   -45.921457    6.1759575 
  197700   -1726367.3    8.3925788   -10.155277   -1.2414608    2.2496239   -45.947746    6.1540252 
  197800   -1726367.3    8.4123974   -10.180089   -1.2617431    2.2995227   -45.971971    6.1342293 
  197900   -1726367.4    8.4306093   -10.198465    -1.278431    2.3531155   -45.994672    6.1144079 
  198000   -1726367.4    8.4491254   -10.210379   -1.2987589    2.4062571   -46.017138    6.0970823 
  198100   -1726367.4    8.4641077   -10.219155      -1.3166    2.4580756   -46.038772    6.0835025 
  198200   -1726367.4    8.4740297   -10.223778   -1.3325639    2.5116572   -46.058309    6.0708638 
  198300   -1726367.4    8.4826381   -10.225141   -1.3453443     2.565862    -46.07658     6.060576 
  198400   -1726367.4    8.4873563   -10.225341   -1.3598114    2.6177221   -46.096245    6.0504082 
  198500   -1726367.4    8.4900635   -10.221153   -1.3714975    2.6677158   -46.115497    6.0415897 
  198600   -1726367.4    8.4901325   -10.220836   -1.3836751    2.7178841   -46.135128    6.0337575 
  198700   -1726367.4    8.4919361   -10.216104   -1.3920423    2.7669413   -46.153009    6.0270042 
  198800   -1726367.4    8.4922783   -10.209236   -1.3994801     2.816343    -46.17179    6.0216446 
  198900   -1726367.4    8.4908485   -10.204196   -1.4055908      2.86475   -46.191557    6.0162941 
  199000   -1726367.4     8.489487   -10.198249   -1.4111554    2.9107783   -46.212763    6.0126184 
  199100   -1726367.4    8.4888189   -10.189284    -1.414696    2.9588712   -46.231975    6.0099102 
  199200   -1726367.4    8.4845783   -10.179519   -1.4184223    3.0034209   -46.251848    6.0079917 
  199300   -1726367.4    8.4816647   -10.169123   -1.4205019    3.0486112   -46.270872    6.0063961 
  199400   -1726367.4    8.4791154   -10.160379   -1.4246702    3.0922661   -46.289155    6.0046629 
  199500   -1726367.4     8.479374    -10.14813   -1.4256445    3.1343223    -46.30837    6.0026263 
  199600   -1726367.4    8.4770401   -10.137487   -1.4272038    3.1785291   -46.328158    6.0022704 
  199700   -1726367.4    8.4717818   -10.126085   -1.4273036    3.2206584   -46.347739     6.001763 
  199800   -1726367.5    8.4673675   -10.114573   -1.4266959    3.2615746   -46.368043    6.0011607 
  199900   -1726367.5    8.4618259   -10.101991   -1.4261964    3.3020454   -46.387681    6.0009493 
  200000   -1726367.5    8.4559884   -10.089803   -1.4243029    3.3425984   -46.407434    6.0018895 
  200100   -1726367.5    8.4503989   -10.078957   -1.4224425    3.3817227   -46.427209    6.0025616 
  200200   -1726367.5    8.4445156   -10.067586   -1.4196849    3.4213508   -46.446704    6.0028644 
  200300   -1726367.5    8.4380519   -10.054011   -1.4168527    3.4594482    -46.46674     6.003718 
  200400   -1726367.5    8.4324405   -10.041088   -1.4146794    3.4978588   -46.486614    6.0048632 
  200500   -1726367.5     8.427558   -10.027181   -1.4116743    3.5355798   -46.505575     6.006713 
  200600   -1726367.5    8.4213012   -10.012363   -1.4091167    3.5744137   -46.524262     6.009646 
  200700   -1726367.5    8.4145716   -9.9988266   -1.4062071    3.6108385   -46.541965    6.0116433 
  200800   -1726367.5    8.4070336   -9.9846512    -1.402684    3.6483647   -46.560007    6.0137957 
  200900   -1726367.5     8.401031   -9.9693356   -1.3986797    3.6856791   -46.577748    6.0159097 
  201000   -1726367.5    8.3931311   -9.9547834   -1.3947349    3.7216435   -46.595107    6.0175615 
  201100   -1726367.5    8.3870162   -9.9384957   -1.3893086    3.7570311   -46.613112    6.0196491 
  201200   -1726367.5    8.3794903   -9.9233166   -1.3847605    3.7916708   -46.629866    6.0217418 
  201300   -1726367.5    8.3718624   -9.9101369   -1.3808671    3.8261932   -46.646376    6.0246304 
  201400   -1726367.5    8.3659597   -9.8955276   -1.3763596    3.8605856   -46.662166    6.0268958 
  201500   -1726367.5    8.3578488   -9.8825863   -1.3728565    3.8943847   -46.678326     6.028699 
  201600   -1726367.5    8.3500455   -9.8681825   -1.3680248     3.928186   -46.695469    6.0309225 
  201700   -1726367.5    8.3412578   -9.8532726   -1.3646855    3.9625557   -46.711228    6.0320164 
  201800   -1726367.5    8.3324892   -9.8388794   -1.3614119    3.9980316   -46.727491    6.0342422 
  201900   -1726367.5    8.3256645   -9.8227324   -1.3569253     4.033517   -46.742951    6.0364966 
  202000   -1726367.5    8.3174887   -9.8073055   -1.3521481    4.0674613   -46.758609    6.0385097 
  202100   -1726367.5    8.3089371   -9.7920218   -1.3466466    4.1003065    -46.77465    6.0415438 
  202200   -1726367.5    8.3027626   -9.7749634   -1.3412267    4.1336667   -46.790836    6.0438201 
  202300   -1726367.5    8.2933304   -9.7624122   -1.3379948    4.1669412   -46.807381    6.0465565 
  202400   -1726367.5    8.2835165   -9.7483291   -1.3340995    4.1991659   -46.824079    6.0488801 
  202500   -1726367.5    8.2750075   -9.7327011   -1.3302098    4.2308222   -46.840329    6.0520431 
  202600   -1726367.5    8.2654133   -9.7192889     -1.32684    4.2623741   -46.856664    6.0544888 
  202700   -1726367.5    8.2544464   -9.7044083   -1.3236811    4.2948581    -46.87299    6.0571607 
  202800   -1726367.5    8.2447668   -9.6887085   -1.3189478     4.326164   -46.889193    6.0597149 
  202900   -1726367.5    8.2342784   -9.6731206   -1.3151278    4.3586177   -46.905348    6.0623514 
  203000   -1726367.5    8.2239907    -9.656934   -1.3120841    4.3906845   -46.921888    6.0644974 
  203100   -1726367.5    8.2133679   -9.6419313   -1.3082598    4.4220722   -46.936975    6.0664499 
  203200   -1726367.5    8.2039335    -9.625479   -1.3035359    4.4529189   -46.952297     6.069109 
  203300   -1726367.5    8.1931704   -9.6090603   -1.3006744    4.4844751    -46.96733    6.0715899 
  203400   -1726367.5    8.1819756   -9.5921171    -1.296132    4.5162288   -46.982518    6.0742579 
  203500   -1726367.5    8.1711365   -9.5761222   -1.2919637    4.5470746    -46.99701    6.0756495 
  203600   -1726367.5    8.1597769   -9.5600049   -1.2884022    4.5768249   -47.011903    6.0778331 
  203700   -1726367.5    8.1488644   -9.5446968   -1.2839944     4.607198   -47.026751    6.0795451 
  203800   -1726367.5    8.1388454   -9.5276621   -1.2794024    4.6373388   -47.041973    6.0812695 
  203900   -1726367.5      8.13017    -9.512376   -1.2743091    4.6662128    -47.05628    6.0830814 
  204000   -1726367.5    8.1195621   -9.4957863   -1.2693725     4.695826   -47.070689    6.0844491 
  204100   -1726367.5    8.1092955   -9.4789903   -1.2645031    4.7252279   -47.085243    6.0861138 
  204200   -1726367.5     8.099632   -9.4618185   -1.2592738    4.7538575   -47.099531    6.0875947 
  204300   -1726367.5    8.0892511   -9.4449492   -1.2539027    4.7824068   -47.113324    6.0893809 
  204400   -1726367.5    8.0793984   -9.4287674   -1.2492623    4.8105848   -47.127313     6.091126 
  204500   -1726367.5    8.0687352   -9.4119691   -1.2446219    4.8390739   -47.142007    6.0929678 
  204600   -1726367.5    8.0579017   -9.3948318   -1.2399263    4.8675141   -47.156113    6.0945922 
  204700   -1726367.5    8.0469147    -9.377136   -1.2361331     4.896915   -47.169509    6.0965161 
  204800   -1726367.5    8.0359352   -9.3610123   -1.2314102    4.9245012    -47.18278    6.0981704 
  204900   -1726367.5    8.0249642   -9.3454633   -1.2271781    4.9520795    -47.19681    6.0998927 
  205000   -1726367.5    8.0142655   -9.3286706   -1.2226672    4.9798975   -47.210195    6.1016004 
  205100   -1726367.5    8.0034829    -9.310975   -1.2179681    5.0078888   -47.224301    6.1033842 
  205200   -1726367.5    7.9915462   -9.2944018   -1.2137161    5.0356514   -47.238176    6.1050012 
  205300   -1726367.5    7.9788324   -9.2780944    -1.209317    5.0636826   -47.252008    6.1066221 
  205400   -1726367.5     7.967936   -9.2610856   -1.2047686    5.0910542   -47.265554    6.1084402 
  205500   -1726367.5    7.9574311   -9.2439134   -1.2010201    5.1178896   -47.279242    6.1105346 
  205600   -1726367.5    7.9465491   -9.2274816   -1.1980197    5.1445229   -47.292768    6.1117525 
  205700   -1726367.5    7.9349896   -9.2104974   -1.1939403    5.1704818    -47.30626    6.1133812 
  205800   -1726367.5    7.9233836   -9.1935258   -1.1904043    5.1964807   -47.319278    6.1152784 
  205900   -1726367.5    7.9122166   -9.1774126   -1.1864514    5.2230019   -47.332453    6.1166728 
  206000   -1726367.5    7.9013268   -9.1597821   -1.1826134    5.2485325   -47.345002      6.11767 
  206100   -1726367.5    7.8893079    -9.143759   -1.1795394    5.2743052    -47.35859    6.1195485 
  206200   -1726367.5    7.8773663   -9.1281781   -1.1759162    5.2993479   -47.371617    6.1211985 
  206300   -1726367.5    7.8658877   -9.1112351   -1.1721118    5.3244583   -47.384884    6.1226882 
  206400   -1726367.5    7.8533905   -9.0937309    -1.168788    5.3500091    -47.39843    6.1247954 
  206500   -1726367.5    7.8419216   -9.0760829   -1.1647049    5.3749647   -47.411978    6.1263798 
  206600   -1726367.5    7.8301974   -9.0583179   -1.1608674    5.3992301   -47.425134     6.127838 
  206700   -1726367.5    7.8183546    -9.041169   -1.1570292    5.4236714   -47.438183    6.1291917 
  206800   -1726367.5    7.8063897   -9.0240021   -1.1531614    5.4481388   -47.451213    6.1305255 
  206900   -1726367.5    7.7951091   -9.0065246   -1.1498854    5.4721636   -47.464358    6.1315225 
  207000   -1726367.5    7.7829489   -8.9900968   -1.1464424    5.4959719   -47.477145    6.1327594 
  207100   -1726367.5    7.7709815   -8.9734192   -1.1430623    5.5196838   -47.489962    6.1337013 
  207200   -1726367.5    7.7593948   -8.9564747   -1.1397901    5.5437763   -47.503178    6.1347974 
  207300   -1726367.5    7.7461634   -8.9395208   -1.1366034    5.5672928   -47.515621    6.1364253 
  207400   -1726367.5    7.7346215   -8.9232376   -1.1328006     5.590933   -47.528103    6.1377586 
  207500   -1726367.5    7.7226741   -8.9076094     -1.12893    5.6137495   -47.540675    6.1393826 
  207600   -1726367.5    7.7105869    -8.890613   -1.1245713    5.6369179   -47.553072    6.1403769 
  207700   -1726367.5    7.6980799   -8.8738591   -1.1211234    5.6602986   -47.565148    6.1414439 
  207800   -1726367.5    7.6858883   -8.8571881   -1.1170381     5.682848   -47.577532    6.1422819 
  207900   -1726367.5    7.6735315    -8.840344   -1.1131276    5.7054976   -47.589792    6.1434779 
  208000   -1726367.5    7.6605232   -8.8230546    -1.108824    5.7280624      -47.602    6.1446991 
  208100   -1726367.5    7.6482547   -8.8058242   -1.1052889    5.7503745      -47.614     6.145849 
  208200   -1726367.5    7.6357181   -8.7892214   -1.1021298    5.7723932   -47.625724    6.1475499 
  208300   -1726367.5     7.624667   -8.7724243   -1.0987498    5.7949204   -47.637302    6.1486488 
  208400   -1726367.5    7.6123379   -8.7557368   -1.0950619    5.8168385   -47.649215    6.1499145 
  208500   -1726367.5    7.5995838   -8.7390489   -1.0916798    5.8389004   -47.661356    6.1520494 
  208600   -1726367.5    7.5871409   -8.7228056   -1.0884783    5.8606376   -47.673188    6.1532353 
  208700   -1726367.5    7.5746901    -8.707975   -1.0859651    5.8825579    -47.68455    6.1539706 
  208800   -1726367.5    7.5629677   -8.6915754   -1.0822403    5.9038656   -47.696679    6.1554955 
  208900   -1726367.5    7.5507747   -8.6759328   -1.0795471    5.9253571   -47.708201    6.1564265 
  209000   -1726367.5    7.5392169   -8.6605933   -1.0769881    5.9469175   -47.719966    6.1575637 
  209100   -1726367.5    7.5265866   -8.6442638   -1.0752926    5.9681669   -47.731505    6.1594034 
  209200   -1726367.5    7.5148127   -8.6299589   -1.0727099    5.9888088   -47.743068    6.1605603 
  209300   -1726367.5    7.5021099   -8.6148834   -1.0703074    6.0101499   -47.754744    6.1612602 
  209400   -1726367.5      7.48938   -8.5998134   -1.0682213    6.0311696   -47.766218    6.1619661 
  209500   -1726367.5    7.4765629   -8.5844154   -1.0663761    6.0514913   -47.777743    6.1630245 
  209600   -1726367.5    7.4640711   -8.5686484    -1.063946    6.0717992   -47.789381    6.1638015 
  209700   -1726367.5    7.4521158   -8.5525623   -1.0609189    6.0925854   -47.801065    6.1651754 
  209800   -1726367.5    7.4396338   -8.5364676    -1.057862    6.1129577   -47.812676    6.1663499 
 