LAMMPS (22 Aug 2018)
Processor partition = 3
Reading data file ...
  orthogonal box = (0 0 0) to (170 170 379.205)
  1 by 1 by 1 MPI processor grid
  reading atoms ...
  443580 atoms
Reading potential file /home/yzhang951/Au_Al/Au_u3.eam with DATE: 2007-06-11
WARNING: Using 'neigh_modify every 1 delay 0 check yes' setting during minimization (../min.cpp:168)
Neighbor list info ...
  update every 1 steps, delay 0 steps, check yes
  max neighbors/atom: 2000, page size: 100000
  master list distance cutoff = 7.55
  ghost atom cutoff = 7.55
  binsize = 3.775, bins = 46 46 101
  1 neighbor lists, perpetual/occasional/extra = 1 0 0
  (1) pair eam, perpetual
      attributes: half, newton on
      pair build: half/bin/atomonly/newton
      stencil: half/bin/3d/newton
      bin: standard
Setting up quickmin style minimization ...
  Unit style    : metal
  Current step  : 0
Per MPI rank memory allocation (min/avg/max) = 232.7 | 232.7 | 232.7 Mbytes
Step TotEng Pxx Pyy Pzz Pxy Pyz Pxz 
       0   -1717728.4    2782.0187    3072.7443    2732.7961   -232.90778   -51.945192    293.13327 
     100   -1725620.7    438.38068    619.00534     464.9092    16.732205   -35.282883    48.558065 
     200   -1725818.3    317.33906    464.16016    332.25395    35.492095   -43.076553    54.264593 
     300   -1725932.5    246.44742    374.21666    259.13311    49.210671   -47.901762    53.525694 
     400   -1726053.9    199.34842    318.55455     214.9865    58.103576   -50.394244    52.756649 
     500   -1726090.4    171.00797    285.65615    190.99068    64.600784   -52.178624    51.075986 
     600   -1726117.2    148.02358    261.19634    173.47187    69.821703   -53.714641    49.213579 
     700   -1726157.2    128.45954    242.69945    159.48616     73.60141   -54.933108    48.161493 
     800   -1726171.3    113.20405    229.01317     149.3049    76.764606   -56.186432    46.861163 
     900   -1726194.9    97.841381    215.91755    139.19283    79.449431   -57.490241    46.034402 
    1000   -1726205.1    86.049324    205.91293    131.67396    81.504806   -58.559427    45.424423 
    1100   -1726213.8    75.000515     196.3883    124.53622    83.260228   -59.486091    45.085539 
    1200   -1726230.8    64.107006    186.81654    117.13543    84.612022   -60.217527    45.028052 
    1300   -1726238.1    56.096473    179.47559    111.84026    85.476486   -60.812266    45.014961 
    1400   -1726244.3    48.787436    172.58139    107.02785     86.09422   -61.322051    45.040866 
    1500   -1726254.9     41.43427     165.5237    102.15977    86.473625   -61.719012    45.071523 
    1600     -1726260     35.48876    159.53382    98.278507     86.72051   -62.096693    44.943113 
    1700   -1726264.6    29.759482    153.50606     94.54648    86.875328   -62.563866     44.71517 
    1800   -1726273.2    23.929399    147.24451    90.684276    86.879464   -63.107069    44.524361 
    1900   -1726276.7    19.409325    142.04614     87.73768    86.799308   -63.683451    44.298173 
    2000   -1726280.2    15.010056    136.70099    84.840266    86.644616   -64.295245    44.063114 
    2100   -1726283.8    10.847673    131.33392    81.995736    86.464213   -64.933309     43.80623 
    2200   -1726289.3    6.9918962    126.28438    79.311658    86.285297   -65.514102    43.606421 
    2300   -1726291.8    3.5872553    121.48413    76.896399     86.15912   -66.120709    43.366395 
    2400   -1726296.1 -0.042519298    116.47533    74.340495    86.054351   -66.657222    43.157714 
    2500   -1726298.7   -3.1296916    112.20099    72.239168    85.998607   -67.107765    42.978476 
    2600   -1726300.9   -6.2090002     107.8819    70.140778    85.977049   -67.529494    42.788146 
    2700   -1726302.9   -9.2335137    103.67231    68.088884    86.010615   -67.901847     42.55435 
    2800   -1726306.9   -12.212079    99.814352    66.086846    86.059978   -68.154937     42.35417 
    2900   -1726308.7   -14.913811    96.293629    64.286368    86.210026   -68.394071    42.086639 
    3000   -1726310.4   -17.677085    92.851123    62.436734    86.386319   -68.607299    41.796006 
    3100   -1726313.6   -20.521332    89.554332    60.525743    86.560304   -68.785331    41.562124 
    3200   -1726315.2   -23.053732    86.551008    58.768565    86.753838   -68.992443    41.347338 
    3300   -1726316.9   -25.497074    83.612915    57.084103     86.96255   -69.215873    41.143424 
    3400   -1726319.6   -27.847586    80.907127    55.568784     87.13444   -69.438565    40.978723 
    3500   -1726320.8   -29.880173    78.589142    54.277283     87.31532   -69.704639    40.832891 
    3600     -1726322    -31.91761    76.310928    52.940641    87.500963   -70.007343    40.701518 
    3700     -1726324   -33.881756    74.175082    51.654364    87.673704   -70.311944    40.605614 
    3800   -1726324.9   -35.690601    72.171735    50.425615    87.863791   -70.637667    40.501234 
    3900   -1726325.8   -37.507405    70.179393    49.166953    88.071325   -70.981185    40.398772 
    4000   -1726327.4   -39.265952    68.330784    47.951175    88.269869   -71.315891    40.322198 
    4100   -1726328.2   -40.881603     66.59058     46.83699    88.489053    -71.66882    40.233018 
    4200     -1726329   -42.521158    64.852547    45.699122    88.746616   -72.038351     40.15384 
    4300   -1726330.3   -44.122708    63.195343    44.559331    89.007562   -72.401741    40.099509 
    4400   -1726330.9   -45.522755    61.718633    43.547023    89.241811   -72.763133     40.04602 
    4500   -1726331.6    -46.94088    60.240883    42.504207    89.489936   -73.142581    40.012863 
    4600   -1726332.7   -48.386992    58.763057    41.435524    89.752267   -73.515758    39.974758 
    4700   -1726333.3   -49.676224    57.443634    40.476502    90.013636   -73.867844    39.936195 
    4800   -1726333.8   -50.942511    56.147327     39.55379    90.291393   -74.228278    39.901036 
    4900   -1726334.8   -52.250754    54.849868    38.598381    90.561998   -74.602711    39.875256 
    5000   -1726335.3   -53.384649    53.722069    37.768456    90.814451   -74.943391    39.862635 
    5100   -1726335.8   -54.534753    52.597401    36.928882    91.076273   -75.306652    39.846766 
    5200   -1726336.3    -55.66319    51.493248    36.093164    91.333978   -75.683648    39.826847 
    5300   -1726337.1   -56.749199    50.429803    35.304386    91.578409   -76.032721    39.825184 
    5400   -1726337.5   -57.735331    49.449843    34.578909    91.816046   -76.376075    39.815039 
    5500   -1726337.9   -58.713269    48.434141    33.832084    92.058649   -76.741581    39.813137 
    5600   -1726338.6   -59.640467     47.47573    33.123151    92.285154   -77.078883    39.820384 
    5700     -1726339   -60.512686    46.552245    32.437144    92.527446   -77.435565    39.818305 
    5800   -1726339.7   -61.413887    45.600596    31.718632    92.770911   -77.798487     39.81538 
    5900     -1726340   -62.196441    44.749202    31.080247    92.995723   -78.147889    39.807203 
    6000   -1726340.4   -62.991082    43.862019    30.418707    93.234076   -78.501655    39.785637 
    6100   -1726340.8   -63.770373    42.977437     29.76742    93.481241   -78.872412    39.759449 
    6200   -1726341.5   -64.521346    42.133481    29.160794    93.714696   -79.204304    39.719571 
    6300   -1726341.9   -65.195207     41.33711    28.584263    93.967353   -79.521382     39.66627 
    6400   -1726342.2   -65.853889    40.554561    28.006575    94.231999   -79.835125    39.609993 
    6500   -1726342.9   -66.531275    39.760558    27.415319    94.517613   -80.135082    39.553335 
    6600   -1726343.3   -67.124556    39.037585    26.877108     94.80179   -80.420307     39.49924 
    6700   -1726343.7   -67.699913    38.315051    26.333533    95.108588   -80.724216    39.457554 
    6800   -1726344.4   -68.313974    37.607135    25.797583    95.402305   -81.039342    39.431263 
    6900   -1726344.7   -68.868686    36.950019    25.322965    95.690706   -81.360352     39.41482 
    7000     -1726345   -69.428599    36.271441    24.856973    95.990473   -81.700222    39.409561 
    7100   -1726345.6   -70.020897    35.611035    24.391037    96.281545   -82.052714    39.419393 
    7200   -1726345.9   -70.564064     35.00444    23.956701    96.576653    -82.38833    39.426364 
    7300   -1726346.2   -71.092394    34.388192    23.539461    96.886476   -82.740542    39.442379 
    7400   -1726346.7   -71.642831    33.759528    23.111505    97.211785   -83.103881    39.468358 
    7500     -1726347   -72.141566    33.186181    22.735635    97.514284   -83.443367    39.496621 
    7600   -1726347.3   -72.601085    32.625177    22.383637     97.81964   -83.780843    39.534367 
    7700   -1726347.5   -73.087837    32.039733    22.018849    98.144986   -84.143207     39.57106 
    7800   -1726348.1   -73.564441     31.46859    21.648864    98.479557   -84.492741    39.613399 
    7900   -1726348.3   -73.970622    30.951777    21.327947    98.795065   -84.817778    39.650021 
    8000   -1726348.6   -74.379745    30.421722    20.999276    99.129647   -85.158063    39.690833 
    8100     -1726349   -74.818211    29.872282    20.663217    99.460392   -85.502671    39.737494 
    8200   -1726349.3    -75.18016    29.374506    20.364115     99.77958    -85.82449    39.782885 
    8300   -1726349.5   -75.540027     28.87259    20.061795    100.11121   -86.164015    39.838689 
    8400   -1726349.8   -75.915427    28.342078    19.742608    100.45164   -86.512174    39.892787 
    8500   -1726350.3   -76.299199    27.809187    19.428746    100.78456   -86.839784    39.936888 
    8600   -1726350.5   -76.620168     27.32155    19.155273    101.10321   -87.148278    39.973077 
    8700   -1726350.7   -76.925172    26.841834     18.90461    101.42826   -87.460857    40.010112 
    8800     -1726351   -77.238278    26.357262    18.651688    101.77504    -87.77942    40.042104 
    8900   -1726351.4   -77.541889    25.870371    18.387575    102.11502    -88.09002    40.070864 
    9000   -1726351.6   -77.796025     25.41839    18.161126    102.44635   -88.377549     40.09578 
    9100   -1726351.8   -78.049562    24.952431    17.929921     102.7945   -88.678922    40.115269 
    9200   -1726352.2   -78.300622    24.479947    17.723353    103.14125   -88.977776    40.131385 
    9300   -1726352.4   -78.500454    24.036138    17.532477    103.47172   -89.277442    40.143278 
    9400   -1726352.6   -78.706127    23.578524    17.335252    103.82064   -89.601026    40.151718 
    9500   -1726352.9    -78.91478     23.13657    17.154195    104.14945   -89.898285    40.160996 
    9600   -1726353.1    -79.08395    22.705972    16.982357    104.49568   -90.202421    40.165111 
    9700   -1726353.3   -79.248596    22.253547    16.813181    104.85009   -90.517458    40.166518 
    9800   -1726353.7   -79.435055    21.813178      16.6408    105.18395   -90.811627    40.168494 
    9900   -1726353.9   -79.583143    21.397812    16.499879    105.52033   -91.101426    40.172487 
   10000   -1726354.1   -79.729232    20.959103    16.344649    105.86836   -91.401518     40.16492 
   10100   -1726354.4   -79.885963    20.510024    16.184815    106.22111   -91.702064    40.153219 
   10200   -1726354.6   -79.998811    20.094784    16.058468    106.56467   -91.982254    40.140074 
   10300   -1726354.8   -80.142047     19.64551    15.907845    106.92711   -92.270296    40.121521 
   10400   -1726355.1   -80.282044    19.201692    15.752583    107.27456   -92.543492     40.09277 
   10500   -1726355.3   -80.388546    18.765356    15.614072    107.63985   -92.825766    40.039646 
   10600   -1726355.8   -80.509275     18.27886    15.456336    108.00657   -93.105075    39.972713 
   10700     -1726356   -80.546811     17.78459    15.318389    108.35124   -93.389116    39.918005 
   10800   -1726356.5    -80.59106    17.229456    15.157684    108.68338   -93.681422    39.897443 
   10900   -1726356.7   -80.587142    16.719293    15.019329    108.98464   -93.953947    39.908431 
   11000     -1726357   -80.602596    16.167622     14.87315    109.30735   -94.239329    39.945157 
   11100   -1726357.4   -80.647524    15.630202    14.712963      109.619   -94.516807    40.002447 
   11200   -1726357.6   -80.678318    15.123858    14.567861    109.92024   -94.780886    40.068112 
   11300   -1726357.9   -80.705575    14.611337    14.431046    110.25254   -95.050962    40.143462 
   11400   -1726358.2   -80.746838    14.136853    14.300017    110.56556   -95.293244    40.218549 
   11500   -1726358.4   -80.768177    13.664919    14.185066    110.89453    -95.54399    40.295948 
   11600   -1726358.8   -80.801838    13.205333    14.061521    111.22806   -95.787239    40.373063 
   11700     -1726359   -80.798636    12.783918    13.951854    111.55984   -96.030247    40.450008 
   11800   -1726359.4   -80.819371     12.35027    13.836247    111.91199   -96.272154    40.532974 
   11900   -1726359.6   -80.800658    11.955358    13.738976    112.24941   -96.487359    40.604658 
   12000   -1726359.8   -80.767476    11.576323    13.644431    112.61595   -96.723747     40.68716 
   12100   -1726360.1   -80.740933    11.196146    13.551844    112.97182   -96.954761    40.760749 
   12200   -1726360.3   -80.696523    10.846465    13.472806    113.33253   -97.175826    40.830219 
   12300   -1726360.5    -80.63297    10.498368    13.412361    113.71456   -97.403673    40.907178 
   12400   -1726360.9   -80.577237    10.147049    13.328595    114.08574   -97.620218    40.982388 
   12500     -1726361   -80.499841    9.8450676    13.268449     114.4507   -97.832259    41.053123 
   12600   -1726361.2   -80.391575     9.537712    13.207862       114.84   -98.059103    41.132541 
   12700   -1726361.5   -80.319843    9.2402198    13.135973    115.21866   -98.278967    41.210625 
   12800   -1726361.7   -80.229672    8.9701393    13.082509    115.59989   -98.494197     41.28954 
   12900   -1726361.9   -80.132064    8.6905723    13.010675    115.99486   -98.721482    41.373781 
   13000   -1726362.2   -80.050635    8.4210498    12.931184    116.38947   -98.947246    41.462932 
   13100   -1726362.4   -79.953622     8.188279    12.872531    116.76061   -99.155665    41.554332 
   13200   -1726362.5   -79.854327    7.9496288    12.800126    117.13467   -99.368651    41.657387 
   13300   -1726362.7   -79.744916    7.7167511    12.721635    117.51498   -99.592923     41.76528 
   13400     -1726363   -79.663475    7.4877101    12.653291    117.86707   -99.805189    41.868687 
   13500   -1726363.2   -79.574991    7.2560705    12.577367    118.22689   -100.01963    41.982843 
   13600   -1726363.4   -79.478681    7.0221975    12.504978    118.59148    -100.2365    42.109793 
   13700   -1726363.6   -79.412127    6.8153334    12.431717    118.91905   -100.43859    42.234089 
   13800   -1726363.8   -79.322322    6.6270131    12.372321    119.24815   -100.64988    42.358098 
   13900     -1726364   -79.249098     6.440805    12.317508    119.57823   -100.86537    42.484842 
   14000   -1726364.2   -79.164183    6.2905567    12.270225     119.8833   -101.06032     42.60426 
   14100   -1726364.3   -79.085446     6.124287    12.230094     120.1979   -101.27065    42.732931 
   14200   -1726364.6   -79.027719    5.9554759    12.186881    120.48757   -101.47084    42.847787 
   14300   -1726364.7   -78.949887    5.8003141     12.15318     120.7752   -101.67307    42.957623 
   14400   -1726364.9   -78.874459     5.647339     12.11894    121.07248   -101.87769    43.070379 
   14500   -1726365.1   -78.795873    5.5278535    12.101077    121.34221   -102.06157    43.174569 
   14600   -1726365.2   -78.719478    5.4188992    12.090199    121.62976   -102.24453    43.276514 
   14700   -1726365.5   -78.659237    5.3040573    12.074214    121.89603   -102.41582    43.368874 
   14800   -1726365.6   -78.584103    5.2235345    12.075932      122.174   -102.57773    43.450308 
   14900   -1726365.7    -78.50172    5.1403222    12.076318    122.45882   -102.74366    43.531147 
   15000   -1726365.9   -78.436051    5.0643722    12.080747    122.71952   -102.89407    43.605759 
   15100     -1726366   -78.350714    5.0058914    12.096416    122.98709   -103.03956    43.679991 
   15200   -1726366.2   -78.264328    4.9303296    12.114313    123.26212   -103.18788    43.748948 
   15300   -1726366.4   -78.189014    4.8597093    12.133467    123.50824   -103.32037    43.811572 
   15400   -1726366.5   -78.095398    4.7922413     12.15844    123.76272   -103.45283     43.87343 
   15500   -1726366.7   -78.006423    4.7064696    12.174782    124.02222   -103.58179    43.935853 
   15600   -1726366.8   -77.917512    4.6418804    12.199905    124.25906   -103.69233    43.994057 
   15700   -1726366.9   -77.801011    4.5737084    12.224957    124.51553    -103.8034    44.050953 
   15800   -1726367.2   -77.690839    4.5123762    12.252801    124.77131   -103.91351    44.103874 
   15900   -1726367.3   -77.564302    4.4546537    12.275625    125.01424   -104.00852    44.151031 
   16000   -1726367.4   -77.438635     4.388774    12.300267    125.26954   -104.10867    44.195448 
   16100   -1726367.6    -77.33146      4.29847    12.312196    125.51543   -104.20347    44.234614 
   16200   -1726367.8   -77.214379    4.2351293    12.345153    125.75111   -104.29692    44.266742 
   16300   -1726367.9   -77.085071    4.1668836     12.36699    126.00339   -104.39708      44.3005 
   16400   -1726368.1    -76.97684    4.0831744    12.372158    126.23765   -104.48917     44.33094 
   16500   -1726368.3     -76.8591    4.0087473    12.387005    126.47691   -104.58312    44.357202 
   16600   -1726368.4   -76.714178    3.9396455    12.399515    126.71615   -104.68095    44.383355 
   16700   -1726368.6   -76.582303    3.8823749    12.406635    126.93424   -104.77523    44.406879 
   16800   -1726368.7   -76.427501    3.8276066    12.412661    127.15566   -104.87946    44.434253 
   16900   -1726368.9   -76.279398    3.7798188    12.417298    127.37058   -104.97814    44.465478 
   17000     -1726369   -76.111997     3.739966    12.419986    127.58582   -105.07408    44.495856 
   17100   -1726369.2   -75.956445    3.6879776    12.414819    127.80347    -105.1734    44.525841 
   17200   -1726369.3   -75.796483    3.6528895    12.421739    128.00764   -105.27333    44.554679 
   17300   -1726369.4   -75.617421    3.6171454    12.423426    128.22409   -105.37804     44.58821 
   17400   -1726369.6   -75.472743    3.5816727     12.41508    128.41754   -105.47884    44.619578 
   17500   -1726369.6    -75.30678    3.5542054    12.413647     128.6216   -105.58622    44.657055 
   17600   -1726369.8    -75.15751    3.5228543      12.4107     128.8196    -105.6879    44.690698 
   17700   -1726369.9   -74.998011     3.498342    12.416924    129.01672   -105.79336    44.722099 
   17800   -1726370.1   -74.830528     3.483274    12.416406    129.21997   -105.89905    44.747378 
   17900   -1726370.1   -74.660445    3.4779268    12.425975    129.41269   -105.99524    44.771088 
   18000   -1726370.2   -74.481017    3.4714918    12.430448    129.61104   -106.10166    44.796047 
   18100   -1726370.4    -74.31235    3.4638731    12.439725    129.79985     -106.212    44.815832 
   18200   -1726370.5    -74.12965    3.4669742    12.452124    129.98703   -106.32028    44.834622 
   18300   -1726370.6   -73.941667      3.47516     12.46726    130.18607   -106.43298    44.855744 
   18400   -1726370.7   -73.776796     3.487683    12.483096    130.36544   -106.53158    44.874186 
   18500   -1726370.8   -73.597038      3.50795    12.499884    130.55009   -106.63675    44.893517 
   18600   -1726370.8   -73.397728    3.5304022    12.513767    130.74443   -106.74704    44.908616 
   18700     -1726371   -73.221849    3.5465744    12.525644    130.92578   -106.84836    44.924174 
   18800   -1726371.1   -73.024854    3.5780332    12.546613    131.10734   -106.94595     44.94027 
   18900   -1726371.2   -72.817302     3.606065    12.562042    131.29371    -107.0503    44.955573 
   19000   -1726371.3   -72.616367    3.6257657    12.580244    131.47923   -107.15341    44.970003 
   19100   -1726371.4   -72.418738    3.6533478    12.598953    131.65672   -107.24885    44.982888 
   19200   -1726371.5    -72.20725    3.6854112     12.61631    131.84239   -107.34799    44.995838 
   19300   -1726371.6   -72.007556    3.7143076    12.639262      132.021   -107.44686    45.010019 
   19400   -1726371.7   -71.795118    3.7573407    12.666493    132.18814   -107.53484     45.02584 
   19500   -1726371.8   -71.587297    3.7964811    12.693521    132.36171   -107.62545    45.044176 
   19600   -1726371.8   -71.367942    3.8334418    12.726201    132.53813   -107.72011     45.06583 
   19700     -1726372   -71.170094    3.8658687    12.747311    132.70246   -107.81286    45.085269 
   19800   -1726372.1   -70.974289    3.8961226    12.775137    132.86495   -107.90526    45.108127 
   19900   -1726372.2   -70.765383    3.9369145     12.80564    133.02291   -108.00152    45.134944 
   20000   -1726372.3   -70.569193    3.9700708    12.828478    133.17139    -108.0998    45.160365 
   20100   -1726372.4   -70.378882    4.0095561     12.85211    133.30924   -108.19157    45.184473 
   20200   -1726372.5   -70.175451    4.0484799    12.882672    133.45317   -108.28862    45.214053 
   20300   -1726372.6   -69.964481    4.0985316    12.915241    133.59828   -108.38422    45.243167 
   20400   -1726372.7   -69.779794    4.1306793    12.938915    133.73133   -108.47186    45.269449 
   20500   -1726372.8   -69.585319    4.1706604    12.969966     133.8683   -108.56354    45.297833 
   20600   -1726372.8   -69.381074    4.2176131     12.99644    134.00914   -108.65496    45.327141 
   20700     -1726373   -69.192129     4.255642    13.014917    134.13994   -108.74204    45.351409 
   20800   -1726373.1   -69.006529    4.2906436    13.046186    134.27104   -108.82155    45.374464 
   20900   -1726373.2   -68.832835    4.3294374    13.078064    134.40239   -108.89545    45.397104 
   21000   -1726373.3   -68.652542    4.3713165    13.117752    134.53303    -108.9634    45.424445 
   21100   -1726373.4   -68.486083    4.3998503    13.141854    134.65669   -109.02433    45.443892 
   21200   -1726373.5   -68.311408    4.4386478    13.177142    134.78083    -109.0712    45.461055 
   21300   -1726373.6   -68.144067    4.4703303    13.214031    134.91153    -109.1129    45.477224 
   21400   -1726373.7   -67.981139    4.5050219    13.253635    135.05614   -109.15137    45.489361 
   21500   -1726373.8   -67.817199    4.5418689     13.29975     135.1901     -109.184    45.501496 
   21600   -1726373.9   -67.646242    4.5889681    13.350031     135.3352   -109.22051    45.509196 
   21700   -1726374.1   -67.483974    4.6205925     13.38589    135.47689   -109.25946    45.516876 
   21800   -1726374.1   -67.325401    4.6536252    13.418886    135.61309   -109.29411    45.524202 
   21900   -1726374.2   -67.148303    4.7086006    13.463473    135.75559   -109.33228    45.534045 
   22000   -1726374.4   -66.989076    4.7527814    13.500242     135.8895   -109.36862     45.54103 
   22100   -1726374.4   -66.816527    4.8134591    13.544906    136.02772    -109.4054    45.553552 
   22200   -1726374.6   -66.646064    4.8778118    13.585645    136.16171   -109.44242    45.569233 
   22300   -1726374.6   -66.485054    4.9440273     13.62702    136.28839   -109.47842    45.583265 
   22400   -1726374.7   -66.316875    5.0201907    13.677841    136.42643   -109.51458    45.600166 
   22500   -1726374.8   -66.152698    5.0980512    13.726098     136.5689   -109.55035     45.62188 
   22600   -1726374.9   -65.991077    5.1711026    13.775582    136.70377   -109.58714    45.643624 
   22700     -1726375   -65.832449    5.2473959    13.820237    136.83774   -109.61962    45.665987 
   22800     -1726375   -65.663567    5.3324607     13.86413    136.97282   -109.64875    45.690487 
   22900   -1726375.1   -65.516207    5.4053942    13.901726    137.10231   -109.67398    45.719147 
   23000   -1726375.2   -65.353598    5.4887543    13.942854    137.22879   -109.69425    45.744128 
   23100   -1726375.3   -65.191382    5.5710313    13.991891    137.35478   -109.70717    45.770055 
   23200   -1726375.4    -65.04156    5.6466083    14.041997    137.47128   -109.71243    45.794144 
   23300   -1726375.4   -64.877546    5.7319423    14.103687    137.59877   -109.70747    45.816854 
   23400   -1726375.6   -64.730367    5.8168302    14.159557    137.71895   -109.70127    45.832272 
   23500   -1726375.6   -64.584369    5.9105315    14.215378    137.83169   -109.68404    45.847108 
   23600   -1726375.8   -64.432657    6.0015116    14.270997    137.95327   -109.66291    45.859202 
   23700   -1726375.9   -64.286939    6.0915787    14.319343    138.06733   -109.64157    45.863836 
   23800     -1726376   -64.135746    6.1846681    14.371536    138.18355   -109.61146    45.863298 
   23900   -1726376.1   -63.981348     6.269271    14.410652    138.30711    -109.5862    45.858143 
   24000   -1726376.2   -63.823567    6.3630563    14.446379    138.43088   -109.55734    45.849356 
   24100   -1726376.4    -63.66979    6.4611152    14.481303    138.55924   -109.53248    45.842297 
   24200   -1726376.5   -63.519947    6.5506551    14.510654    138.67772   -109.51042    45.838184 
   24300   -1726376.6   -63.366792    6.6560027    14.549247     138.7996   -109.49319    45.836427 
   24400   -1726376.7   -63.215732    6.7558742    14.590141    138.92877   -109.48025    45.846742 
   24500   -1726376.8   -63.064774    6.8664928    14.635636    139.04471    -109.4624    45.861285 
   24600   -1726376.9   -62.910282     6.986979    14.692913    139.15863   -109.44054    45.883682 
   24700     -1726377   -62.761747    7.1046032    14.757529    139.27166   -109.41991    45.906611 
   24800   -1726377.1   -62.614171    7.2353651    14.834152    139.38055   -109.39679    45.927756 
   24900   -1726377.2   -62.449298    7.3969632    14.925301    139.49611   -109.36747    45.953694 
   25000   -1726377.4   -62.304641    7.5345424    15.008825    139.60556   -109.33268    45.975059 
   25100   -1726377.5   -62.154663    7.6641355    15.091253     139.7274   -109.29673    45.988565 
   25200   -1726377.7   -62.012094    7.7524793    15.140548    139.85581   -109.25751    45.993854 
   25300   -1726377.8   -61.885372    7.8233101     15.17092    139.97941   -109.22352    45.994827 
   25400   -1726377.9   -61.766408    7.8847386    15.196218    140.11507   -109.18813    45.993816 
   25500     -1726378   -61.665984    7.9269189     15.20205    140.24118   -109.15193    46.002019 
   25600   -1726378.1   -61.556967    7.9673231    15.209951      140.369   -109.11305     46.01514 
   25700   -1726378.3   -61.453827     7.998598    15.211518    140.50177   -109.06794    46.023889 
   25800   -1726378.4   -61.346902    8.0374983    15.217723    140.62802   -109.02641    46.034998 
   25900   -1726378.5   -61.227478    8.0853393    15.222936    140.76343    -108.9865    46.046963 
   26000   -1726378.6   -61.115706    8.1391702    15.228282    140.89214   -108.95281    46.064547 
   26100   -1726378.7   -60.987729    8.2104711    15.242745    141.02458   -108.91924    46.078632 
   26200   -1726378.9   -60.867171    8.2826032    15.250367    141.15432   -108.89455    46.099071 
   26300   -1726378.9   -60.749761    8.3558701    15.264953    141.27771   -108.87682    46.122095 
   26400     -1726379   -60.630247    8.4479273    15.269114    141.40535   -108.86015    46.144562 
   26500   -1726379.1   -60.517603    8.5539138    15.286214    141.51832   -108.85147    46.170327 
   26600   -1726379.2   -60.394975    8.6648741    15.310148    141.62981   -108.84137    46.205715 
   26700   -1726379.3    -60.27597    8.7631128     15.32389    141.73235   -108.83742     46.23978 
   26800   -1726379.4   -60.141049    8.8599181    15.357862    141.83291   -108.84055    46.273736 
   26900   -1726379.6   -60.010234    8.9496648    15.375201    141.93073    -108.8561    46.308089 
   27000   -1726379.6   -59.878567    9.0246526    15.384859    142.01895    -108.8753    46.337837 
   27100   -1726379.7   -59.727365    9.0967725    15.403682    142.10956   -108.89036    46.371008 
   27200   -1726379.8   -59.583897    9.1626583    15.419272    142.19541   -108.91097    46.401686 
   27300   -1726379.9   -59.434801    9.2141011    15.427561    142.27706   -108.93817    46.436231 
   27400     -1726380   -59.296219    9.2535729    15.439569    142.35537   -108.96892    46.469919 
   27500   -1726380.1   -59.157061    9.2836428     15.44545    142.43789     -108.999    46.499142 
   27600   -1726380.2   -59.024109    9.3053507    15.451849    142.52449   -109.03053    46.532458 
   27700   -1726380.3   -58.889443     9.314815    15.464669    142.59969   -109.06099    46.564953 
   27800   -1726380.3   -58.742572    9.3214965    15.478417    142.68115    -109.0952    46.595228 
   27900   -1726380.4   -58.591255    9.3260476    15.490855    142.76521   -109.13234    46.625529 
   28000   -1726380.5   -58.453211    9.3138678    15.498355    142.84406   -109.16844    46.663164 
   28100   -1726380.6   -58.304001     9.311684    15.519639    142.92256   -109.21261    46.699707 
   28200   -1726380.7   -58.152288    9.2939143    15.534193    142.99642    -109.2617    46.738044 
   28300   -1726380.8   -58.000517    9.2721803    15.548845    143.06796   -109.31104    46.775405 
   28400   -1726380.8   -57.844657    9.2654515    15.572164    143.13792   -109.36553    46.809161 
   28500   -1726380.9    -57.68995    9.2528306    15.596046    143.21469   -109.42117    46.836837 
   28600     -1726381    -57.54435    9.2236841    15.611151    143.29142   -109.47761    46.862752 
   28700     -1726381   -57.408362     9.201456    15.625725    143.36408   -109.53284    46.885059 
   28800   -1726381.1   -57.267893    9.1673401    15.642686     143.4434   -109.58862     46.90428 
   28900   -1726381.2   -57.129355    9.1305333    15.657115    143.52392   -109.64869    46.926452 
   29000   -1726381.2    -57.00516    9.1008603    15.671473     143.6003   -109.70097    46.943172 
   29100   -1726381.3   -56.866253    9.0730579    15.692366     143.6816   -109.75906    46.958434 
   29200   -1726381.4   -56.745938    9.0377003    15.701793    143.76447   -109.81944    46.973236 
   29300   -1726381.4   -56.631906    9.0087412    15.716954    143.84482   -109.87532    46.985173 
   29400   -1726381.5   -56.500168    8.9807218    15.739539     143.9272   -109.93428    46.993205 
   29500   -1726381.5   -56.370396    8.9486842    15.761391     144.0131   -109.99653    47.007124 
   29600   -1726381.6   -56.252846    8.9047172    15.777664    144.10023   -110.05962    47.017944 
   29700   -1726381.7   -56.135837    8.8670943    15.796172    144.18881   -110.11708    47.026329 
   29800   -1726381.7   -56.019286    8.8242141    15.814946    144.27863    -110.1731    47.036315 
   29900   -1726381.8   -55.907229    8.7700802    15.832802    144.37153   -110.23107    47.043958 
   30000   -1726381.8   -55.795695    8.7166401    15.845863    144.46442   -110.28704    47.052175 
   30100   -1726381.9   -55.689906    8.6682523     15.86117    144.55297   -110.34109    47.058452 
   30200   -1726381.9   -55.585861    8.6155421    15.877191    144.64371   -110.40005    47.067348 
   30300     -1726382   -55.482313    8.5584177    15.886853    144.73453   -110.46093    47.072321 
   30400   -1726382.1   -55.381294    8.5103803     15.89578    144.82209   -110.51754      47.0781 
   30500   -1726382.1   -55.273686    8.4678191    15.905487    144.91403   -110.57719    47.085581 
   30600   -1726382.1   -55.165919    8.4232238    15.908255    145.01345   -110.64062    47.092299 
   30700   -1726382.2   -55.064619    8.3818361    15.906725    145.10695   -110.69895    47.098518 
   30800   -1726382.3   -54.959572    8.3480202    15.907502    145.19391   -110.75928    47.103305 
   30900   -1726382.3   -54.845568    8.3157799    15.909798    145.28337   -110.82289    47.110866 
   31000   -1726382.4   -54.729555     8.279663    15.908419    145.37266   -110.89057    47.115144 
   31100   -1726382.4   -54.619849    8.2446674    15.905588    145.45916   -110.95473    47.117696 
   31200   -1726382.5   -54.506879    8.2193514     15.90102    145.54655   -111.02218    47.123332 
   31300   -1726382.5   -54.391956    8.2014739    15.906421    145.63734   -111.09081    47.129551 
   31400   -1726382.6   -54.276271    8.1767165    15.912395     145.7335   -111.16463    47.135318 
   31500   -1726382.6   -54.165463    8.1477591    15.910714    145.82353   -111.23549    47.141757 
   31600   -1726382.7   -54.049287    8.1306775    15.913592     145.9109   -111.30664     47.14901 
   31700   -1726382.7   -53.926276    8.1079605    15.914852    146.00149   -111.37909    47.156992 
   31800   -1726382.8   -53.805497    8.0833092    15.915585    146.08653   -111.45212    47.162587 
   31900   -1726382.8   -53.681254    8.0656517     15.92051    146.17008   -111.53149    47.166748 
   32000   -1726382.9   -53.543743    8.0472638    15.921058    146.26079   -111.61269     47.17138 
   32100   -1726382.9   -53.421276     8.033677    15.921615    146.34163   -111.69594    47.178492 
   32200     -1726383   -53.294674     8.020037    15.925415    146.42835   -111.78292    47.186705 
   32300     -1726383   -53.165528    8.0036742    15.927663    146.51459   -111.87385    47.194255 
   32400   -1726383.1   -53.045396    7.9968634    15.929484    146.59231   -111.95965    47.197053 
   32500   -1726383.1    -52.91927    8.0035669    15.932368    146.67424   -112.05151    47.203782 
   32600   -1726383.2   -52.796538    8.0022189    15.931554    146.75667   -112.14324    47.209049 
   32700   -1726383.2   -52.672565     8.012887    15.932415    146.83362   -112.22674    47.215062 
   32800   -1726383.3   -52.540682    8.0210797    15.938033    146.91517   -112.31537    47.217033 
   32900   -1726383.4   -52.413564    8.0273215    15.934977     146.9866   -112.39905    47.217691 
   33000   -1726383.4   -52.285568     8.032728    15.932783    147.05745   -112.48363    47.212362 
   33100   -1726383.5   -52.148635    8.0446367    15.937155     147.1306   -112.57092    47.208393 
   33200   -1726383.5   -52.017815    8.0582832    15.945238    147.19705   -112.65397    47.204987 
   33300   -1726383.6    -51.88038    8.0707278    15.951363    147.26465   -112.73974    47.201961 
   33400   -1726383.6   -51.751288    8.0735868    15.960213    147.33458   -112.82795    47.199391 
   33500   -1726383.7   -51.631397    8.0768727    15.967924    147.39825   -112.91127    47.198815 
   33600   -1726383.7   -51.496605    8.0720824    15.975986    147.46288   -112.99938     47.19559 
   33700   -1726383.8   -51.369756    8.0698559    15.986509    147.52072   -113.08771    47.191033 
   33800   -1726383.9   -51.244299    8.0732495    16.004243    147.57748   -113.17145    47.188965 
   33900   -1726383.9   -51.117236    8.0812495    16.020405    147.63798    -113.2568    47.187097 
   34000     -1726384   -50.989717    8.0763187    16.033707    147.69808   -113.34606    47.187695 
   34100     -1726384   -50.862219    8.0775329    16.049003    147.75438   -113.43182    47.187786 
   34200   -1726384.1   -50.736126    8.0806783    16.065941    147.81235   -113.52245    47.184558 
   34300   -1726384.1   -50.609795    8.0814482    16.079289    147.87459   -113.60959    47.186063 
   34400   -1726384.2   -50.487952    8.0879823    16.097322    147.93126    -113.6975    47.186597 
   34500   -1726384.2   -50.361998    8.0882272    16.110292    147.99036   -113.79006    47.189764 
   34600   -1726384.3   -50.234873    8.0999854    16.129764    148.04903   -113.88119     47.18838 
   34700   -1726384.3   -50.106047    8.1097887    16.153182    148.10533   -113.97039    47.188686 
   34800   -1726384.4   -49.972731    8.1203882    16.172559    148.16088   -114.06301    47.189558 
   34900   -1726384.5   -49.841995    8.1189674    16.192548    148.21888   -114.15357    47.191791 
   35000   -1726384.5   -49.712751    8.1202251    16.212713    148.27314   -114.23797    47.191371 
   35100   -1726384.5   -49.581998    8.1221161    16.237074    148.33009   -114.32237    47.191143 
   35200   -1726384.6   -49.440804    8.1233864    16.253307    148.39248   -114.41156    47.194645 
   35300   -1726384.7   -49.308918    8.1088407    16.265321    148.45312   -114.50579    47.197494 
   35400   -1726384.7   -49.186591    8.1001743    16.281342    148.51035   -114.59254    47.200162 
   35500   -1726384.7   -49.050838    8.0922123    16.302459    148.57657   -114.68012    47.202892 
   35600   -1726384.8   -48.907694     8.080137    16.325051    148.64664   -114.77411    47.205285 
   35700   -1726384.8   -48.776843    8.0678283    16.343269    148.71232   -114.86308    47.206557 
   35800   -1726384.9   -48.639339    8.0582019    16.362105    148.78064   -114.95746    47.206097 
   35900   -1726384.9   -48.503487    8.0400179    16.374791    148.84858   -115.05649    47.208186 
   36000     -1726385   -48.372911    8.0175623    16.391394     148.9104   -115.15101    47.212196 
   36100     -1726385   -48.234467    7.9878235    16.405303    148.97648    -115.2517    47.215096 
   36200   -1726385.1   -48.102466    7.9636319    16.416862    149.04421   -115.35268    47.218613 
   36300   -1726385.1   -47.968029    7.9435848    16.432013    149.11625   -115.45327    47.222958 
   36400   -1726385.1   -47.827852    7.9140368    16.447059    149.18643   -115.55933    47.227402 
   36500   -1726385.2   -47.690101    7.8842902    16.460587    149.25765   -115.66116     47.23172 
   36600   -1726385.2    -47.55873    7.8556527    16.474546    149.32922   -115.76511    47.236235 
   36700   -1726385.3   -47.418071    7.8234796    16.484439    149.40428   -115.87342    47.243202 
   36800   -1726385.4   -47.283261    7.7890946    16.493548    149.47638   -115.98664    47.250335 
   36900   -1726385.4    -47.14939    7.7572951    16.510094    149.54896   -116.09568     47.25674 
   37000   -1726385.4   -47.021698    7.7270248    16.527138    149.62427   -116.20691    47.263188 
   37100   -1726385.5   -46.884073    7.6995003    16.545319    149.69943   -116.31952    47.268436 
   37200   -1726385.5   -46.749508    7.6686833    16.561533    149.77827   -116.43695    47.274511 
   37300   -1726385.6   -46.624056     7.638716    16.574007    149.85185   -116.54563    47.278737 
   37400   -1726385.6     -46.4957    7.6110884    16.591645    149.92768   -116.65901     47.28648 
   37500   -1726385.7   -46.369496    7.5726218    16.603438    150.00091   -116.77555    47.293814 
   37600   -1726385.7   -46.244035    7.5309116    16.613897    150.07688   -116.88958    47.298938 
   37700   -1726385.8   -46.126985    7.4935942    16.621811    150.14664   -116.99818    47.306697 
   37800   -1726385.8   -46.002644    7.4532848    16.628398    150.21848    -117.1137     47.31325 
   37900   -1726385.8   -45.872502    7.4136694    16.644699     150.2965    -117.2342    47.320628 
   38000   -1726385.9   -45.753525    7.3642794    16.654682    150.36828   -117.35541    47.327462 
   38100   -1726385.9   -45.638414    7.3134303     16.66876     150.4378   -117.47384    47.337825 
   38200     -1726386   -45.517582    7.2668175    16.680982    150.50931   -117.59649    47.345588 
   38300     -1726386   -45.399931    7.2122354    16.689478    150.57899    -117.7232    47.355692 
   38400   -1726386.1   -45.287632    7.1562812    16.693437    150.64546   -117.85259    47.365244 
   38500   -1726386.1   -45.176302    7.1065713    16.701394    150.70697   -117.97937    47.375282 
   38600   -1726386.2   -45.058298    7.0581651    16.705051    150.77245   -118.11592    47.382691 
   38700   -1726386.2   -44.941588    6.9976826    16.704323    150.83197   -118.25709    47.391581 
   38800   -1726386.2   -44.822041    6.9346337    16.707691    150.89618   -118.40042     47.39977 
   38900   -1726386.3     -44.7114    6.8678966    16.704791    150.95282   -118.54723    47.409963 
   39000   -1726386.4   -44.604126    6.8001709    16.701769    151.00423   -118.69432    47.424371 
   39100   -1726386.4    -44.49924    6.7086396    16.691531    151.05866   -118.85028    47.440887 
   39200   -1726386.5   -44.388457    6.6165391    16.672654    151.11106   -119.01782    47.455009 
   39300   -1726386.5    -44.27821    6.5246048    16.651915     151.1593   -119.18738    47.475521 
   39400   -1726386.6   -44.150918    6.4249136      16.6295    151.21266   -119.37321    47.499177 
   39500   -1726386.7   -44.013123    6.3187248    16.595398    151.26398   -119.56975    47.527004 
   39600   -1726386.8   -43.888302    6.2213075    16.557701     151.3071   -119.76538    47.559396 
   39700   -1726386.8   -43.745887    6.1206493    16.522842    151.34999   -119.97414    47.593563 
   39800     -1726387   -43.601259    6.0118809    16.477694    151.38668    -120.1905    47.632943 
   39900     -1726387   -43.458861     5.904995    16.439346    151.43028   -120.41283    47.672761 
   40000   -1726387.1   -43.309536    5.7768756    16.383195    151.47207   -120.64602    47.709641 
   40100   -1726387.2   -43.138204    5.6649403    16.342183    151.51659   -120.88178    47.739878 
   40200   -1726387.3   -42.963629    5.5318883    16.289649     151.5687   -121.14524    47.768721 
   40300   -1726387.4   -42.802209    5.3913954    16.233408    151.62419   -121.39326    47.791693 
   40400   -1726387.5   -42.647255    5.2507402     16.17778    151.68898   -121.65357    47.811947 
   40500   -1726387.5   -42.475403    5.1110968    16.123416    151.76246   -121.92882    47.830284 
   40600   -1726387.6   -42.320732    4.9670852    16.071279    151.83684   -122.19695    47.847674 
   40700   -1726387.7   -42.166984    4.8336874    16.034144    151.91434   -122.46264    47.866018 
   40800   -1726387.7   -42.002221    4.6811838    15.997928    152.00511   -122.74824    47.887667 
   40900   -1726387.8   -41.850645     4.538165    15.962548    152.09333   -123.02461    47.907494 
   41000   -1726387.9   -41.702054    4.3942357    15.934835    152.18709   -123.30726    47.927277 
   41100     -1726388   -41.534835    4.2545472      15.9104    152.28844    -123.6104    47.949588 
   41200     -1726388    -41.38299    4.1073082    15.887264    152.38289   -123.89536    47.965642 
   41300   -1726388.1   -41.232458    3.9608206    15.874433    152.49239     -124.187    47.982858 
   41400   -1726388.2    -41.07616     3.812431    15.856736    152.61048   -124.49088    48.001801 
   41500   -1726388.3   -40.930552    3.6731738    15.847893    152.72496   -124.77188    48.017944 
   41600   -1726388.3   -40.777821    3.5215233    15.839111    152.85513   -125.06576    48.035296 
   41700   -1726388.4   -40.625693    3.3759511    15.827603    152.98617   -125.35113    48.051522 
   41800   -1726388.5    -40.48882    3.2345857    15.826369     153.1218   -125.62435    48.066295 
   41900   -1726388.5   -40.355714    3.0836883    15.822869     153.2658   -125.90764    48.081687 
   42000   -1726388.6   -40.235179    2.9408095    15.817053    153.40704   -126.16316    48.095648 
   42100   -1726388.6   -40.113637    2.8021023     15.81788    153.56501   -126.42522    48.106319 
   42200   -1726388.7   -40.005867    2.6624785    15.810221    153.72218   -126.67547    48.116139 
   42300   -1726388.8   -39.900214    2.5358866     15.80818    153.88067   -126.91275    48.125738 
   42400   -1726388.8   -39.800308    2.3925013    15.805669    154.04785   -127.14628    48.135787 
   42500   -1726388.9   -39.701992    2.2585622    15.807486     154.2078   -127.35978    48.140835 
   42600   -1726388.9   -39.609706    2.1208884    15.807817    154.37498   -127.57717    48.150079 
   42700     -1726389   -39.527934    1.9862203    15.807347    154.53933   -127.78561    48.161209 
   42800     -1726389   -39.444955    1.8550658     15.80607    154.71223   -127.98768     48.16947 
   42900   -1726389.1   -39.361368    1.7131642    15.798917    154.89078    -128.1945    48.181563 
   43000   -1726389.1   -39.291082    1.5770232    15.793076    155.05869   -128.38669    48.188818 
   43100   -1726389.2   -39.220283    1.4380952    15.793557    155.23641   -128.58323    48.195584 
   43200   -1726389.2   -39.135098    1.3015722     15.79365     155.4185   -128.78243    48.202572 
   43300   -1726389.3    -39.06485    1.1755733    15.785022    155.59441   -128.96527    48.206544 
   43400   -1726389.3   -38.992408    1.0514901    15.779132    155.77197    -129.1435    48.212679 
   43500   -1726389.4   -38.921258   0.93106134    15.773753    155.95955   -129.32642    48.217321 
   43600   -1726389.4   -38.858593   0.80911294    15.759896    156.14268   -129.49747    48.218032 
   43700   -1726389.5   -38.799354   0.68945101     15.75316     156.3213   -129.66045    48.221267 
   43800   -1726389.5    -38.73394   0.56925483    15.747878    156.50562   -129.82248    48.226186 
   43900   -1726389.5   -38.666024    0.4515077    15.740866    156.69584   -129.98746    48.228401 
   44000   -1726389.6   -38.602446    0.3371911    15.735103    156.88119   -130.14595    48.229752 
   44100   -1726389.6   -38.542588    0.2266367     15.72585    157.06069   -130.29489    48.231615 
   44200   -1726389.6   -38.479285   0.11488361    15.716454    157.24556   -130.44974    48.235383 
   44300   -1726389.7   -38.415247 0.0017554169    15.706972    157.43134   -130.60737    48.237505 
   44400   -1726389.7   -38.355596  -0.10158987    15.699533    157.60318   -130.75265    48.240532 
   44500   -1726389.7   -38.293041  -0.21318912    15.688116    157.78417   -130.90343    48.243798 
   44600   -1726389.8   -38.228985  -0.31883076    15.675643    157.96126   -131.05023    48.245646 
   44700   -1726389.8   -38.166013  -0.41284728    15.668468    158.13991   -131.19539    48.249489 
   44800   -1726389.9   -38.097409  -0.51021057    15.658201    158.32069   -131.34368    48.250861 
   44900   -1726389.9   -38.036147  -0.59481534    15.647343    158.49091    -131.4843    48.254703 
   45000   -1726389.9    -37.96931  -0.68684495     15.64021    158.67183   -131.63105    48.261713 
   45100     -1726390   -37.905072  -0.77776924    15.625993     158.8448   -131.77602    48.266953 
   45200     -1726390   -37.837313  -0.86762879    15.617839    159.02382   -131.92187    48.272881 
   45300     -1726390   -37.769356  -0.95083512    15.607235    159.19883   -132.07351    48.274682 
   45400   -1726390.1   -37.704602   -1.0363316    15.600621    159.36722   -132.21601    48.277594 
   45500   -1726390.1   -37.641826   -1.1262989    15.593142    159.54509   -132.36378    48.283199 
   45600   -1726390.1   -37.580314   -1.2187231    15.582609    159.71878   -132.51239    48.288343 
   45700   -1726390.2   -37.512253   -1.2953544    15.578714    159.88859   -132.65512    48.293072 
   45800   -1726390.2   -37.447137   -1.3849813    15.571802    160.06744   -132.80602    48.298983 
   45900   -1726390.2   -37.382698   -1.4623304    15.561979     160.2367   -132.95082    48.306826 
   46000   -1726390.2   -37.312796   -1.5477771    15.556252    160.40671   -133.10293    48.314865 
   46100   -1726390.3   -37.248363   -1.6275873     15.54618    160.57775   -133.25512    48.323827 
   46200   -1726390.3   -37.178221   -1.7006254    15.536714    160.74638   -133.40109    48.331506 
   46300   -1726390.3   -37.108507   -1.7833402    15.526144    160.92039   -133.55766    48.338834 
   46400   -1726390.4   -37.043014   -1.8571101     15.52049    161.07913   -133.70509    48.346862 
   46500   -1726390.4   -36.968887   -1.9337162    15.516273    161.24551   -133.86128    48.353785 
   46600   -1726390.4   -36.895171   -2.0042188    15.511624    161.41388   -134.01226    48.361739 
   46700   -1726390.5   -36.823841   -2.0702447    15.507805    161.58384   -134.16498    48.367984 
   46800   -1726390.5   -36.751335   -2.1483233    15.500507    161.75274   -134.31208    48.377868 
   46900   -1726390.5   -36.683732   -2.2219651    15.494082    161.91728   -134.45967    48.383586 
   47000   -1726390.6   -36.617097   -2.2914151    15.489551    162.08621   -134.61011    48.388179 
   47100   -1726390.6   -36.547371   -2.3620188    15.488425    162.24734   -134.75611    48.394794 
   47200   -1726390.6   -36.479194    -2.437646    15.487468    162.40891   -134.90705    48.397698 
   47300   -1726390.6   -36.412478   -2.5051877    15.486173    162.56191   -135.05306    48.402623 
   47400   -1726390.7   -36.344151    -2.573224    15.483901    162.71836   -135.20357    48.409775 
   47500   -1726390.7   -36.275978   -2.6397724    15.485211    162.86582   -135.35105    48.416259 
   47600   -1726390.7   -36.205188   -2.7088474    15.485124    163.01914   -135.50574    48.423087 
   47700   -1726390.8    -36.13744   -2.7754798    15.487869    163.16294   -135.65061    48.427442 
   47800   -1726390.8   -36.061037   -2.8457574    15.487528    163.31377   -135.80495    48.431462 
   47900   -1726390.8   -35.993674   -2.9107585      15.4886    163.45358   -135.94958     48.43534 
   48000   -1726390.8   -35.921098   -2.9802793    15.487977    163.60133   -136.10502    48.440566 
   48100   -1726390.9   -35.857754    -3.051076    15.482646    163.74311   -136.25588    48.444994 
   48200   -1726390.9    -35.79221   -3.1298702    15.477404    163.88347   -136.41257    48.449164 
   48300   -1726390.9   -35.722693   -3.2061099    15.468895    164.02132   -136.57033      48.4519 
   48400   -1726390.9   -35.655381   -3.2746006    15.465912    164.15252   -136.72524    48.456117 
   48500     -1726391   -35.584395   -3.3475494    15.464903    164.28898   -136.88476    48.459493 
   48600     -1726391   -35.515222   -3.4158734    15.460136    164.42101   -137.04051    48.463422 
   48700     -1726391   -35.445567   -3.4818932    15.456214    164.55033   -137.19887    48.468528 
   48800     -1726391    -35.36985   -3.5552558    15.455581     164.6835   -137.36443    48.472614 
   48900   -1726391.1   -35.298021   -3.6219839    15.455315      164.804     -137.521    48.477421 
   49000   -1726391.1   -35.225163   -3.6860184    15.456344    164.92601   -137.68344      48.4827 
   49100   -1726391.1   -35.149844   -3.7483989    15.455701    165.05007   -137.85502    48.489206 
   49200   -1726391.2   -35.079705   -3.8156431    15.454204    165.16427   -138.01914     48.49417 
   49300   -1726391.2   -35.003243   -3.8810606    15.454626    165.27796   -138.18843    48.498963 
   49400   -1726391.2   -34.926738   -3.9518249    15.453173    165.39464   -138.36634    48.505212 
   49500   -1726391.3   -34.854766   -4.0176384    15.456765    165.50837   -138.53307    48.506616 
   49600   -1726391.3   -34.780832   -4.0760428    15.462427    165.62101   -138.69963    48.510558 
   49700   -1726391.3   -34.705056   -4.1437063    15.465542    165.73447    -138.8736    48.514055 
   49800   -1726391.3   -34.636261   -4.1998913    15.469783    165.83801   -139.03773    48.517398 
   49900   -1726391.3   -34.564671   -4.2660028    15.469015    165.94462   -139.21042    48.519625 
   50000   -1726391.4   -34.497551   -4.3332777    15.466226    166.04882   -139.37986    48.520696 
   50100   -1726391.4   -34.433806   -4.3984823    15.462867    166.15129   -139.54527    48.523345 
   50200   -1726391.4   -34.362542   -4.4654703    15.462668    166.25735   -139.72371    48.527654 
   50300   -1726391.5   -34.296347   -4.5321783    15.459037    166.35668   -139.88911    48.532433 
   50400   -1726391.5   -34.226864   -4.6034109    15.455352    166.45504   -140.06436    48.535813 
   50500   -1726391.5   -34.154071   -4.6787765    15.452905    166.55819   -140.24946    48.540114 
   50600   -1726391.5   -34.084193   -4.7538533    15.443541    166.65437   -140.42518    48.546102 
   50700   -1726391.6    -34.01371   -4.8294191    15.440096    166.74989   -140.61006    48.552127 
   50800   -1726391.6   -33.937727   -4.9143383    15.436718    166.84803    -140.8065    48.559881 
   50900   -1726391.6   -33.868599   -4.9889936    15.430782    166.93452   -140.99156    48.568042 
   51000   -1726391.7    -33.78626   -5.0650101    15.431163    167.02615   -141.18795    48.576599 
   51100   -1726391.7    -33.70086   -5.1419762    15.430439    167.12399   -141.39298    48.588679 
   51200   -1726391.7   -33.618779   -5.2150613    15.433734    167.21201   -141.58438    48.597326 
   51300   -1726391.8   -33.536981   -5.2883571    15.434343    167.30143   -141.78215    48.603978 
   51400   -1726391.8   -33.449531   -5.3636513    15.436142    167.39549   -141.98227    48.607255 
   51500   -1726391.8   -33.369155   -5.4262152    15.444389     167.4833   -142.16746    48.610563 
   51600   -1726391.9   -33.292595   -5.4935385    15.445665    167.57332   -142.35651    48.618021 
   51700   -1726391.9   -33.206349   -5.5678067    15.449375    167.66757    -142.5488     48.62259 
   51800   -1726391.9   -33.126101   -5.6275615    15.452682    167.75524   -142.73253    48.625156 
   51900     -1726392   -33.046927   -5.6906223    15.456822    167.84625   -142.91617    48.631163 
   52000     -1726392   -32.965355   -5.7522634    15.459796    167.93254   -143.10702    48.638603 
   52100     -1726392   -32.886321   -5.8105483    15.461312    168.01754   -143.29801    48.643169 
   52200     -1726392   -32.812385   -5.8659657    15.464935    168.10132   -143.48153    48.648893 
   52300   -1726392.1   -32.733237   -5.9327108     15.47325    168.18975   -143.67274    48.653757 
   52400   -1726392.1   -32.657032   -5.9878274    15.479137    168.27456   -143.86204    48.658935 
   52500   -1726392.1   -32.584801   -6.0467666    15.484981    168.35849    -144.0477    48.665055 
   52600   -1726392.1   -32.512194   -6.1114891    15.493056    168.44178   -144.24173    48.671954 
   52700   -1726392.2   -32.442653   -6.1690981    15.500678    168.52643   -144.42877    48.678972 
   52800   -1726392.2   -32.365497   -6.2249405    15.509289    168.60642   -144.61364    48.684042 
   52900   -1726392.2   -32.288711   -6.2809327    15.517284    168.68946   -144.80872    48.687048 
   53000   -1726392.3   -32.216077   -6.3357693    15.524696    168.76981   -144.99163    48.690655 
   53100   -1726392.3    -32.14511   -6.3898821    15.532796    168.85213    -145.1765    48.694436 
   53200   -1726392.3   -32.070001   -6.4528774    15.537146    168.93278   -145.36841    48.698363 
   53300   -1726392.3   -32.000717   -6.5094734    15.542076    169.00895   -145.55356    48.702468 
   53400   -1726392.4   -31.927938   -6.5633614    15.549995    169.08578   -145.73572    48.705505 
   53500   -1726392.4    -31.86016   -6.6185674     15.55764    169.16577   -145.92839    48.706972 
   53600   -1726392.4    -31.79147   -6.6763323    15.560506    169.24353   -146.11966     48.70806 
   53700   -1726392.4   -31.721244   -6.7261498    15.568064    169.31713   -146.30357    48.710854 
   53800   -1726392.5    -31.64601   -6.7696269    15.582534    169.39206   -146.48999     48.71281 
   53900   -1726392.5   -31.571668   -6.8146356    15.594674    169.46504   -146.68551    48.714685 
   54000   -1726392.5   -31.505114    -6.872018    15.604669    169.53992   -146.88435    48.718617 
   54100   -1726392.5   -31.438644   -6.9224077    15.611628    169.60853   -147.06735    48.719997 
   54200   -1726392.6    -31.36846     -6.97464    15.620033    169.67783   -147.25185    48.719773 
   54300   -1726392.6   -31.296459   -7.0302769    15.627226    169.74462   -147.44284    48.720088 
   54400   -1726392.6   -31.231821   -7.0858821    15.634496    169.81129   -147.63157    48.720562 
   54500   -1726392.6   -31.167562   -7.1431998    15.640508    169.87525   -147.82154    48.724176 
   54600   -1726392.7   -31.099658   -7.1971636    15.650371    169.94634   -148.01691    48.727669 
   54700   -1726392.7   -31.032191   -7.2478438    15.660976    170.01444   -148.20565    48.729221 
   54800   -1726392.7   -30.964133   -7.2973634    15.672608     170.0806    -148.3924    48.730198 
   54900   -1726392.7   -30.897464   -7.3499708    15.681103    170.14906   -148.59058    48.731011 
   55000   -1726392.8   -30.829613   -7.4043792    15.689473    170.21237   -148.77891    48.730314 
   55100   -1726392.8    -30.76338   -7.4564356    15.699464    170.27372   -148.97012    48.733683 
   55200   -1726392.8   -30.700735    -7.511047    15.710649    170.33692    -149.1671    48.736474 
   55300   -1726392.8   -30.637376   -7.5670147    15.720012     170.3973   -149.35809    48.736432 
   55400   -1726392.8   -30.569074   -7.6195384    15.726495    170.45945   -149.55997    48.737226 
   55500   -1726392.9   -30.503341   -7.6726211    15.733991    170.51862   -149.75087    48.738964 
   55600   -1726392.9   -30.438432   -7.7248014    15.742028    170.58089     -149.952    48.742114 
   55700   -1726392.9   -30.370763    -7.773145    15.749936    170.63811   -150.14613    48.743614 
   55800   -1726392.9   -30.298584   -7.8199665    15.761668    170.69599   -150.35018    48.744848 
   55900     -1726393   -30.231943   -7.8674824    15.770726      170.749   -150.54477    48.746464 
   56000     -1726393   -30.160876   -7.9080297     15.78335    170.80586   -150.74998    48.747413 
   56100     -1726393   -30.092814   -7.9496679    15.795477    170.85736   -150.94805    48.748838 
   56200     -1726393   -30.020292    -7.988381    15.806311    170.91077   -151.15382    48.750853 
   56300   -1726393.1   -29.950374   -8.0295846    15.815515    170.96226   -151.35135    48.747759 
   56400   -1726393.1   -29.880132   -8.0656083    15.830802    171.01662   -151.55401    48.744359 
   56500   -1726393.1   -29.805827   -8.0959035    15.842625    171.06671   -151.75244    48.740865 
   56600   -1726393.2   -29.737058   -8.1311817    15.854991    171.11702    -151.9523    48.736622 
   56700   -1726393.2   -29.667705   -8.1681143    15.865815     171.1696    -152.1588    48.732272 
   56800   -1726393.2    -29.60484   -8.2064942    15.870874    171.21972   -152.35378    48.727251 
   56900   -1726393.2   -29.537103   -8.2415129    15.881649    171.26853    -152.5535    48.724648 
   57000   -1726393.3   -29.468177    -8.276302    15.892989    171.32156   -152.75289     48.72027 
   57100   -1726393.3   -29.407649   -8.3140919    15.904743     171.3718    -152.9422    48.715955 
   57200   -1726393.3   -29.342474   -8.3470549      15.9174    171.42654   -153.14267    48.714002 
   57300   -1726393.3   -29.279299   -8.3813249    15.928905    171.47582   -153.33394    48.708842 
   57400   -1726393.3   -29.214383   -8.4161349    15.941832    171.52685   -153.53669    48.703699 
   57500   -1726393.4    -29.15368   -8.4511309    15.951605    171.57643   -153.73459    48.700993 
   57600   -1726393.4   -29.095467   -8.4799284    15.962313    171.62698   -153.93058    48.696855 
   57700   -1726393.4   -29.033271   -8.5141338    15.974155    171.68153   -154.13221    48.695175 
   57800   -1726393.4   -28.976067   -8.5410956    15.985152    171.73138   -154.32036    48.692364 
   57900   -1726393.5   -28.912327   -8.5682028    15.998562    171.78171    -154.5213    48.689611 
   58000   -1726393.5   -28.851746    -8.596457    16.008989    171.83262   -154.71996    48.687189 
   58100   -1726393.5   -28.788503   -8.6242121    16.019804    171.88176   -154.91955     48.68542 
   58200   -1726393.5   -28.727473   -8.6568571    16.031167    171.92822   -155.12715    48.684206 
   58300   -1726393.6   -28.672205   -8.6901674    16.039547    171.96965   -155.32504    48.679732 
   58400   -1726393.6   -28.611488   -8.7178247    16.050955    172.01664   -155.52935    48.676543 
   58500   -1726393.6   -28.548139   -8.7454818    16.061439    172.06445    -155.7359    48.674301 
   58600   -1726393.6   -28.485359   -8.7714223    16.072712    172.10996   -155.93211    48.673391 
   58700   -1726393.6   -28.418851   -8.7998953    16.085436    172.15496   -156.13684    48.672169 
   58800   -1726393.7    -28.35665   -8.8301494    16.094618    172.19914    -156.3375    48.671404 
   58900   -1726393.7   -28.291712   -8.8535884    16.105637    172.24698   -156.53637    48.670443 
   59000   -1726393.7   -28.223197    -8.879588    16.116311    172.29268   -156.74515    48.672148 
   59100   -1726393.7   -28.158769   -8.9052428    16.123326    172.33645   -156.94714    48.671539 
   59200   -1726393.8   -28.092687    -8.929581    16.137249    172.38145   -157.15274    48.672054 
   59300   -1726393.8   -28.020777   -8.9497811    16.146268    172.42645     -157.363    48.672093 
   59400   -1726393.8   -27.955975   -8.9724943    16.160534    172.47292   -157.56023    48.671239 
   59500   -1726393.8   -27.888508   -8.9887475    16.173377    172.51954   -157.76606    48.669788 
   59600   -1726393.9   -27.822202   -9.0117393    16.182159    172.56862   -157.96893    48.667747 
   59700   -1726393.9   -27.758156   -9.0293311    16.197293    172.61988   -158.16556    48.667282 
   59800   -1726393.9   -27.691367   -9.0437082    16.211045    172.67218   -158.36919    48.666106 
   59900   -1726393.9   -27.630423   -9.0622449    16.220881    172.72242   -158.56572    48.664631 
   60000   -1726393.9   -27.567355   -9.0769822    16.236932    172.77182   -158.76065    48.661099 
   60100     -1726394   -27.500526   -9.0986482     16.25396    172.82432   -158.96629    48.659079 
   60200     -1726394    -27.44124    -9.118997    16.262831    172.87401   -159.15935    48.657854 
   60300     -1726394   -27.381794   -9.1401594    16.274296    172.92734   -159.35697    48.658028 
   60400     -1726394   -27.318405   -9.1540955    16.286178    172.97814   -159.55735    48.657339 
   60500   -1726394.1   -27.261669   -9.1733152    16.297128    173.02898   -159.75305    48.657435 
   60600   -1726394.1   -27.203952   -9.1842997    16.314057      173.075   -159.94678      48.6578 
   60700   -1726394.1   -27.144069   -9.1970088      16.3331    173.12762   -160.14489    48.659489 
   60800   -1726394.2   -27.090716   -9.2166397    16.344451    173.17296   -160.33514    48.663586 
   60900   -1726394.2   -27.035119   -9.2250169     16.36128      173.221   -160.52448    48.666188 
   61000   -1726394.2   -26.975084   -9.2360958    16.374297     173.2713   -160.72159    48.670227 
   61100   -1726394.2    -26.91714   -9.2445144    16.382473    173.32022   -160.90842    48.672757 
   61200   -1726394.3   -26.866089   -9.2496861     16.39311    173.37105   -161.09742      48.6759 
   61300   -1726394.3   -26.814966   -9.2663505    16.402165    173.42634   -161.29428    48.678278 
   61400   -1726394.3   -26.766537     -9.28143    16.408313    173.47741   -161.47761    48.682899 
   61500   -1726394.3   -26.714814   -9.2883886    16.422052    173.53027   -161.66521    48.686279 
   61600   -1726394.4   -26.663738   -9.2986533    16.428968    173.58626   -161.85418    48.689859 
   61700   -1726394.4   -26.615128   -9.3012782    16.442227     173.6392   -162.04074    48.692686 
   61800   -1726394.4   -26.569117   -9.3066949    16.458244    173.69303   -162.23406    48.694329 
   61900   -1726394.5   -26.530792   -9.3148914    16.467477       173.75   -162.41287    48.693332 
   62000   -1726394.5   -26.488945   -9.3249388    16.478088    173.80764   -162.60055    48.691673 
   62100   -1726394.5   -26.447056   -9.3358243    16.484885    173.86512   -162.78396    48.690296 
   62200   -1726394.6   -26.411418   -9.3522012    16.492443    173.92661   -162.96618    48.685491 
   62300   -1726394.6   -26.376452   -9.3727881    16.504176    173.99245    -163.1636    48.677614 
   62400   -1726394.6   -26.347851   -9.3982636    16.509156    174.05585   -163.34726    48.668506 
   62500   -1726394.7   -26.322066   -9.4285821    16.515486    174.12242   -163.53784     48.66131 
   62600   -1726394.7   -26.296261   -9.4660009    16.529451    174.19212   -163.73832     48.65381 
   62700   -1726394.8   -26.274255   -9.5074722    16.541185    174.25688   -163.92872    48.647348 
   62800   -1726394.8   -26.244045   -9.5491576    16.556403    174.32434   -164.12805      48.6452 
   62900   -1726394.8   -26.216936   -9.5959863    16.573008    174.39477   -164.33882    48.646146 
   63000   -1726394.9   -26.194117   -9.6381863    16.586926     174.4547   -164.53734    48.645971 
   63100   -1726394.9   -26.161245   -9.6834429    16.607242    174.51662   -164.74513    48.646663 
   63200   -1726394.9   -26.126468   -9.7328281    16.629671    174.57948   -164.96625    48.646878 
   63300     -1726395   -26.084924   -9.7811771    16.649939    174.63888   -165.17922    48.647474 
   63400     -1726395   -26.044314   -9.8317324     16.66945    174.69779   -165.39849     48.65461 
   63500     -1726395   -25.997966   -9.8807364    16.690956    174.75503   -165.62739    48.658382 
   63600   -1726395.1   -25.953981   -9.9269044    16.704738    174.80741   -165.84265    48.663501 
   63700   -1726395.1   -25.905017   -9.9774202    16.724744    174.85831   -166.06922    48.671124 
   63800   -1726395.1   -25.849739   -10.023885    16.745786    174.91539   -166.30411    48.675408 
   63900   -1726395.1   -25.798155   -10.067861    16.765381    174.96738   -166.52742    48.679605 
   64000   -1726395.2   -25.739973   -10.112941    16.783803    175.01869   -166.76582    48.685967 
   64100   -1726395.2   -25.687116   -10.166031    16.797091    175.07177    -167.0085    48.692697 
   64200   -1726395.2   -25.627509   -10.208198    16.814717    175.12422   -167.25138    48.699287 
   64300   -1726395.3   -25.566231   -10.262602    16.824586    175.17725   -167.50256    48.705766 
   64400   -1726395.3    -25.50977   -10.313162    16.840074    175.22668   -167.74259    48.714983 
   64500   -1726395.3   -25.450092   -10.368825    16.856872    175.28061   -167.99935    48.725532 
   64600   -1726395.4   -25.392926    -10.41702    16.868938    175.33322   -168.24466    48.732914 
   64700   -1726395.4      -25.332   -10.466545    16.884125    175.38357   -168.50209    48.743551 
   64800   -1726395.4   -25.277457   -10.518107     16.89628    175.43154      -168.75    48.752398 
   64900   -1726395.4   -25.219876   -10.564145    16.908913    175.48371   -169.01522    48.762924 
   65000   -1726395.5   -25.161674   -10.606778    16.919028    175.53323   -169.26668    48.775869 
   65100   -1726395.5   -25.100988   -10.654025    16.930601    175.58162    -169.5324     48.78958 
   65200   -1726395.5   -25.044506   -10.701253    16.941787    175.62887   -169.79547    48.803581 
   65300   -1726395.6   -24.988673   -10.745721    16.953405    175.67757   -170.05741    48.821034 
   65400   -1726395.6   -24.935454   -10.795881    16.959849    175.72075   -170.32317    48.839545 
   65500   -1726395.6   -24.877888   -10.836697    16.967483    175.76309   -170.59241    48.862289 
   65600   -1726395.7   -24.820708   -10.882903    16.975715    175.80649   -170.85977    48.885435 
   65700   -1726395.7   -24.767833   -10.937407    16.975583    175.85101   -171.12826    48.908927 
   65800   -1726395.7   -24.711112   -10.987818    16.983151    175.89552    -171.4101     48.93468 
   65900   -1726395.8     -24.6507   -11.030419     16.98814    175.94017   -171.68589    48.962517 
   66000   -1726395.8   -24.603022   -11.076035      16.9965    175.97984   -171.97478    48.990988 
   66100   -1726395.9   -24.544391    -11.11189    17.007317    176.02071   -172.25774    49.017919 
   66200   -1726395.9   -24.491915   -11.150796    17.005617    176.06493   -172.54831    49.047595 
   66300   -1726395.9   -24.434376   -11.175412    17.016056     176.1058   -172.84645     49.07656 
   66400     -1726396   -24.376138   -11.198793    17.028566     176.1461   -173.13665     49.10225 
   66500   -1726396.1   -24.306274   -11.213994    17.043356    176.19526   -173.44069    49.128582 
   66600   -1726396.1     -24.2431   -11.226063    17.065111    176.23948   -173.73634    49.150679 
   66700   -1726396.2     -24.1817   -11.245186    17.084904    176.28513   -174.04445    49.173968 
   66800   -1726396.2   -24.120793   -11.270205    17.106619    176.32803   -174.33882    49.194679 
   66900   -1726396.3   -24.053165   -11.293021    17.124749      176.373   -174.64132    49.213489 
   67000   -1726396.3   -23.983234   -11.316366    17.147467    176.41982   -174.93568    49.229223 
   67100   -1726396.3   -23.918702   -11.341629    17.170355    176.47095   -175.23895    49.249233 
   67200   -1726396.4    -23.85646   -11.379088    17.186095     176.5241   -175.53528    49.267282 
   67300   -1726396.4   -23.788635   -11.419668     17.21064    176.57927   -175.84646    49.287481 
   67400   -1726396.5    -23.72412    -11.45354    17.237565    176.63117   -176.13671    49.307108 
   67500   -1726396.5   -23.659507   -11.502155    17.259893    176.69296    -176.4482    49.325052 
   67600   -1726396.6     -23.5962   -11.545448    17.280132    176.74851   -176.74149    49.342911 
   67700   -1726396.6   -23.526236   -11.593231    17.309417    176.81267    -177.0479    49.360224 
   67800   -1726396.7   -23.457758   -11.643297    17.333367    176.87524   -177.34141    49.375847 
   67900   -1726396.7   -23.382822   -11.687955    17.368922    176.94209   -177.64106    49.388606 
   68000   -1726396.8   -23.312348   -11.739557    17.387802    177.00858   -177.93013    49.402344 
   68100   -1726396.8   -23.236384   -11.798284    17.418361    177.08462   -178.22796    49.415816 
   68200   -1726396.9   -23.163977   -11.855935    17.443223    177.16292   -178.51681    49.430205 
   68300   -1726396.9   -23.091029   -11.909463    17.475837     177.2471   -178.80437    49.442655 
   68400     -1726397   -23.017156   -11.970759    17.502784     177.3358   -179.08502    49.454975 
   68500     -1726397    -22.94382    -12.01669    17.534997    177.42559   -179.35469     49.46444 
   68600   -1726397.1   -22.871684   -12.059164    17.561119    177.52109   -179.61459    49.475492 
   68700   -1726397.1   -22.801484   -12.093473    17.595137    177.62487   -179.86064    49.487258 
   68800   -1726397.2   -22.734451   -12.134214     17.62479    177.73012   -180.10235    49.497884 
   68900   -1726397.2   -22.663902   -12.168295    17.660784     177.8383   -180.33601    49.512043 
   69000   -1726397.3     -22.5978   -12.201771    17.685646    177.95101   -180.56237     49.52553 
   69100   -1726397.3   -22.534635   -12.235871    17.708054    178.06786    -180.7779    49.537705 
   69200   -1726397.4   -22.470636   -12.264002    17.730213    178.18779   -180.99165    49.548666 
   69300   -1726397.4   -22.408121   -12.289812    17.757273    178.30926   -181.19107    49.558315 
   69400   -1726397.5   -22.345987   -12.310521    17.784789    178.43333   -181.39311    49.565845 
   69500   -1726397.5   -22.290886   -12.328458    17.820314     178.5517   -181.57484    49.575896 
   69600   -1726397.5   -22.240834   -12.348857    17.848061    178.67649   -181.75462    49.585327 
   69700   -1726397.6   -22.193873   -12.369609     17.87879    178.79592   -181.92204    49.593968 
   69800   -1726397.6    -22.14661   -12.382566    17.915375    178.92011   -182.08261    49.602775 
   69900   -1726397.7   -22.106128   -12.403541    17.946884    179.04803   -182.23685    49.610021 
   70000   -1726397.7   -22.064285   -12.419443    17.979244    179.17177   -182.37915    49.617372 
   70100   -1726397.7   -22.024132    -12.44223    18.010402    179.30165   -182.52061    49.625235 
   70200   -1726397.8   -21.996696   -12.464209    18.038595     179.4244   -182.64724    49.630036 
   70300   -1726397.8   -21.966726   -12.487104    18.072066    179.55433   -182.77359    49.635816 
   70400   -1726397.8   -21.935008   -12.501805    18.102584    179.68536   -182.89438    49.640743 
   70500   -1726397.9   -21.910026   -12.520747    18.128222    179.80632    -183.0038     49.64502 
   70600   -1726397.9   -21.882268   -12.544156    18.158286    179.93802   -183.11297    49.649155 
   70700   -1726397.9   -21.864671   -12.566123    18.186771    180.06264   -183.20807    49.654228 
   70800   -1726397.9   -21.848633   -12.587284    18.219431    180.19149    -183.3042    49.656244 
   70900     -1726398   -21.834607   -12.611244    18.245033    180.31982   -183.39328    49.658641 
   71000     -1726398   -21.819212   -12.634268    18.274552    180.44836   -183.47786    49.660447 
   71100     -1726398   -21.809636   -12.654726    18.304173    180.57692   -183.55681    49.665875 
   71200     -1726398   -21.799605    -12.67875    18.336264    180.71004   -183.62896    49.668566 
   71300   -1726398.1   -21.794438   -12.702796    18.360469    180.84098   -183.69723    49.672542 
   71400   -1726398.1   -21.792295   -12.728278    18.385537     180.9692   -183.75678    49.676428 
   71500   -1726398.1   -21.792299    -12.75607    18.410604    181.09866   -183.81534    49.680571 
   71600   -1726398.1   -21.797722   -12.783123     18.43586     181.2334   -183.86881    49.682923 
   71700   -1726398.2    -21.80929   -12.807554    18.461935    181.37242   -183.92022    49.686624 
   71800   -1726398.2   -21.825447   -12.829038    18.478592    181.50444   -183.96287    49.693791 
   71900   -1726398.2   -21.851338   -12.849157    18.501942      181.644   -184.00193    49.702818 
   72000   -1726398.2   -21.881202   -12.871134    18.525958    181.79343   -184.03742    49.714605 
   72100   -1726398.3   -21.919921   -12.895239    18.545288    181.94592   -184.07023    49.730469 
   72200   -1726398.3   -21.958321   -12.908605    18.572738    182.09695   -184.10107    49.751137 
   72300   -1726398.3   -22.001684    -12.91518    18.609633    182.25366   -184.13136    49.777169 
   72400   -1726398.4   -22.048536   -12.918457    18.655566    182.40489   -184.15826    49.814111 
   72500   -1726398.5   -22.088646       -12.92    18.710615     182.5342   -184.18334    49.851626 
   72600   -1726398.5   -22.130833   -12.927816    18.772577    182.65512   -184.21412    49.888784 
   72700   -1726398.6    -22.17378    -12.94874    18.815759     182.7597   -184.24176    49.919195 
   72800   -1726398.6   -22.206062   -12.977731    18.865629    182.85951    -184.2702    49.943289 
   72900   -1726398.7   -22.243413    -13.01512    18.908242    182.95718   -184.29372    49.959079 
   73000   -1726398.7    -22.27154    -13.05048    18.948689    183.05287   -184.31693    49.968711 
   73100   -1726398.8   -22.303291   -13.097986    18.985741    183.15403   -184.33467    49.974929 
   73200   -1726398.8   -22.329634   -13.137645    19.019584    183.25012    -184.3527    49.977294 
   73300   -1726398.8   -22.351042   -13.180244    19.051606    183.35218   -184.36712    49.976313 
   73400   -1726398.8   -22.369296   -13.223041     19.08432    183.45754   -184.37948    49.975558 
   73500   -1726398.9   -22.388744   -13.267966    19.113945    183.56186   -184.39086    49.973915 
   73600   -1726398.9   -22.403174   -13.308052    19.142197    183.66279   -184.40194    49.970711 
   73700   -1726398.9   -22.419499   -13.348798    19.172467    183.77078   -184.41631    49.971555 
   73800   -1726398.9   -22.434462   -13.384777    19.197007    183.87118   -184.42706    49.970935 
   73900     -1726399   -22.444316   -13.417887    19.224386    183.97709   -184.44127    49.968077 
   74000     -1726399   -22.455213   -13.451205    19.251489    184.07854   -184.45384    49.964021 
   74100     -1726399   -22.467906   -13.482812     19.27526    184.17737   -184.46537    49.963004 
   74200     -1726399   -22.482351   -13.518419    19.297778     184.2796   -184.47619     49.96188 
   74300     -1726399   -22.495475   -13.548549    19.319099    184.37854   -184.48587    49.961998 
   74400   -1726399.1   -22.505944   -13.574425    19.342866    184.47591   -184.49638    49.964991 
   74500   -1726399.1   -22.517303   -13.605163    19.366247    184.57645   -184.50672    49.965644 
   74600   -1726399.1   -22.522983   -13.628814    19.387652    184.67006   -184.51518    49.966916 
   74700   -1726399.1   -22.531439    -13.65111    19.407861    184.76559   -184.52384    49.968037 
   74800   -1726399.1   -22.540903   -13.675686    19.429961    184.86436   -184.52941    49.970679 
   74900   -1726399.2   -22.546837   -13.695972    19.447928    184.95544   -184.53669    49.974673 
   75000   -1726399.2   -22.557774    -13.72095    19.465647    185.05018   -184.54261    49.975241 
   75100   -1726399.2   -22.562058   -13.742693    19.486169    185.14685   -184.55199    49.979401 
   75200   -1726399.2   -22.571053   -13.762845      19.5033    185.23655   -184.55926    49.982235 
   75300   -1726399.2   -22.577088   -13.780123    19.525818    185.32564   -184.56987    49.987453 
   75400   -1726399.2   -22.585888    -13.79901    19.546012    185.41564   -184.57732    49.992339 
   75500   -1726399.3   -22.594257   -13.817813    19.565435    185.50561   -184.58596     49.99675 
   75600   -1726399.3   -22.597681   -13.834247    19.584904    185.59045   -184.59329    50.002362 
   75700   -1726399.3   -22.607273    -13.85232    19.601848    185.67347   -184.60168    50.007557 
   75800   -1726399.3   -22.613299   -13.874371    19.622345    185.75887   -184.61197    50.012419 
   75900   -1726399.3   -22.610671   -13.889453    19.643448    185.84502   -184.62215    50.016109 
   76000   -1726399.3   -22.607255   -13.899296    19.661306    185.92407   -184.63198    50.020651 
   76100   -1726399.4   -22.603737   -13.909988    19.681431    186.00678    -184.6447     50.02648 
   76200   -1726399.4   -22.601624   -13.923088    19.701201    186.08711   -184.65695     50.03206 
   76300   -1726399.4   -22.598461   -13.934276    19.719997    186.16743   -184.67183    50.037873 
   76400   -1726399.4   -22.594785   -13.945704     19.74167    186.24444   -184.68538    50.042186 
   76500   -1726399.4   -22.583918   -13.961661    19.762209    186.32441   -184.70388    50.044894 
   76600   -1726399.4   -22.574467   -13.969221    19.781685    186.39722    -184.7182    50.052422 
   76700   -1726399.5   -22.563706   -13.979291    19.800891    186.47554    -184.7373    50.060145 
   76800   -1726399.5   -22.549459   -13.985203    19.819576    186.55194   -184.75481    50.068471 
   76900   -1726399.5   -22.532491   -13.994476    19.840749    186.62678   -184.77498    50.075594 
   77000   -1726399.5   -22.513664   -13.998264    19.864604     186.6997   -184.79616    50.083152 
   77100   -1726399.5   -22.491654   -13.999842    19.886056     186.7757   -184.81564    50.092835 
   77200   -1726399.6   -22.465861   -13.997879    19.902501     186.8499   -184.83609    50.100906 
   77300   -1726399.6   -22.438011   -13.992083    19.925312     186.9227   -184.85371    50.107914 
   77400   -1726399.6   -22.406406   -13.983732     19.94834    186.99683   -184.86742    50.115955 
   77500   -1726399.6   -22.374974   -13.980671    19.969491    187.06957   -184.88321    50.120879 
   77600   -1726399.6   -22.340929    -13.97569    19.989487    187.14445   -184.89906    50.124993 
   77700   -1726399.7   -22.310108   -13.971764    20.007241    187.21519   -184.91144    50.125716 
   77800   -1726399.7   -22.275187   -13.967417    20.026707    187.28494    -184.9245    50.126633 
   77900   -1726399.7   -22.241391   -13.969628    20.044518    187.35549   -184.93547     50.12866 
   78000   -1726399.7   -22.203897   -13.972498    20.059546    187.42482   -184.94289    50.127189 
   78100   -1726399.7   -22.170128   -13.977552    20.074313    187.48524    -184.9478    50.127317 
[...]
  190200   -1726404.7   -2.9301056   -16.135647    19.982904    219.49215   -129.35534    34.538436 
  190300   -1726404.7   -2.9360447   -16.131102    19.976495     219.4821   -129.32785    34.534144 
  190400   -1726404.7   -2.9398637   -16.124461    19.970187    219.47233   -129.29954    34.530568 
  190500   -1726404.7   -2.9455813   -16.117453    19.964086    219.46309   -129.27148    34.527235 
  190600   -1726404.7   -2.9512344   -16.109884    19.958525    219.45394    -129.2436    34.523512 
  190700   -1726404.7    -2.955873   -16.102987    19.952131    219.44492   -129.21507    34.520203 
  190800   -1726404.7   -2.9621878   -16.096287    19.945905    219.43536   -129.18691     34.51593 
  190900   -1726404.7   -2.9677931   -16.090237    19.939342    219.42593   -129.15868     34.51205 
  191000   -1726404.7   -2.9729808    -16.08314    19.932983    219.41599   -129.13043    34.508029 
  191100   -1726404.7    -2.978191   -16.076645    19.926715    219.40636   -129.10236    34.504108 
  191200   -1726404.7   -2.9828692   -16.070634     19.92026    219.39711   -129.07388    34.499974 
  191300   -1726404.7   -2.9883879   -16.064071    19.914274    219.38757   -129.04521    34.495162 
  191400   -1726404.7   -2.9949596   -16.057535    19.908076      219.379   -129.01688    34.490651 
  191500   -1726404.7   -3.0000789   -16.050649    19.901526    219.36969     -128.989    34.486798 
  191600   -1726404.7   -3.0053237   -16.044429    19.895121     219.3597   -128.96092    34.482858 
  191700   -1726404.7   -3.0111418   -16.038575    19.888149    219.35042    -128.9334    34.479264 
  191800   -1726404.7   -3.0161535   -16.031522    19.881246    219.34031   -128.90581     34.47504 
  191900   -1726404.7   -3.0206786   -16.025433    19.875005    219.33003   -128.87809    34.471224 
  192000   -1726404.7   -3.0260084   -16.020299    19.868785    219.32056   -128.85045    34.467414 
  192100   -1726404.7   -3.0315709   -16.014854    19.861609    219.31143   -128.82341    34.464263 
  192200   -1726404.7   -3.0361042   -16.008343    19.855832    219.30235   -128.79644    34.460417 
  192300   -1726404.7   -3.0396269   -16.001831    19.850137    219.29311   -128.76902     34.45605 
  192400   -1726404.7    -3.044616   -15.996024    19.843211    219.28359   -128.74091    34.452139 
  192500   -1726404.7   -3.0487791   -15.990316    19.837107    219.27404   -128.71377    34.447909 
  192600   -1726404.7   -3.0534888   -15.983646    19.830925    219.26394   -128.68637    34.444086 
  192700   -1726404.7   -3.0582196   -15.978403    19.823867    219.25388    -128.6591    34.440553 
  192800   -1726404.7   -3.0632503   -15.972736    19.817593    219.24369   -128.63242    34.436447 
  192900   -1726404.7   -3.0685203   -15.968299    19.812032    219.23278   -128.60552    34.432899 
  193000   -1726404.7   -3.0730481   -15.962379     19.80529    219.22332   -128.57877     34.42893 
  193100   -1726404.7   -3.0781783   -15.957626    19.799091    219.21275   -128.55203    34.425065 
  193200   -1726404.7   -3.0843835     -15.9521    19.791864    219.20305   -128.52514    34.421626 
  193300   -1726404.7   -3.0893136   -15.947145     19.78523    219.19314   -128.49828    34.418471 
  193400   -1726404.7   -3.0959476    -15.94133    19.778695    219.18318    -128.4713    34.413849 
  193500   -1726404.7   -3.1009934   -15.936003    19.773427    219.17402   -128.44379    34.409953 
  193600   -1726404.7   -3.1062752   -15.930488    19.767163    219.16436   -128.41653    34.406592 
  193700   -1726404.7   -3.1121644   -15.924843    19.760589    219.15492   -128.38905    34.403266 
  193800   -1726404.7   -3.1171182   -15.918628     19.75521    219.14499   -128.36206    34.399767 
  193900   -1726404.7    -3.121877   -15.912338    19.748822     219.1345   -128.33485    34.396612 
  194000   -1726404.7   -3.1269884   -15.906857    19.742295    219.12353   -128.30714    34.393488 
  194100   -1726404.7   -3.1314891   -15.900792    19.736601    219.11308   -128.27975    34.390118 
  194200   -1726404.7   -3.1376094   -15.895535    19.729464    219.10329   -128.25232    34.386704 
  194300   -1726404.7   -3.1442013   -15.890256    19.722128    219.09299   -128.22511    34.382662 
  194400   -1726404.7   -3.1484211     -15.8843    19.715788     219.0831   -128.19784    34.379167 
  194500   -1726404.7   -3.1529583   -15.878675    19.710115     219.0732   -128.17121    34.375263 
  194600   -1726404.7   -3.1580184   -15.872549    19.703822    219.06278   -128.14437    34.371742 
  194700   -1726404.7   -3.1636116   -15.866874    19.697584    219.05279   -128.11776    34.368373 
  194800   -1726404.7    -3.169464   -15.862236    19.690998     219.0431   -128.09096    34.364847 
  194900   -1726404.7   -3.1743806   -15.857703    19.684558    219.03283   -128.06443    34.360841 
  195000   -1726404.7   -3.1801384    -15.85316     19.67816    219.02281   -128.03796    34.356761 
  195100   -1726404.7   -3.1853536   -15.848256    19.671942    219.01258   -128.01134    34.353086 
  195200   -1726404.7   -3.1901286   -15.842163    19.666026    219.00301   -127.98499     34.34969 
  195300   -1726404.7   -3.1951317   -15.837939    19.658943    218.99358   -127.95918    34.346812 
  195400   -1726404.7   -3.2006529   -15.833098     19.65267    218.98443   -127.93285    34.344133 
  195500   -1726404.7   -3.2069284   -15.829159    19.647409    218.97577   -127.90642    34.340476 
  195600   -1726404.7   -3.2114161   -15.823969    19.641191    218.96599   -127.88007    34.337184 
  195700   -1726404.7   -3.2165202   -15.817478    19.634788    218.95617   -127.85469    34.334415 
  195800   -1726404.7   -3.2209096   -15.811984    19.628168    218.94591   -127.82865    34.331199 
  195900   -1726404.7   -3.2269162   -15.807176    19.621938    218.93577   -127.80327    34.328001 
  196000   -1726404.7   -3.2312499   -15.801647    19.616844     218.9262   -127.77804    34.324963 
  196100   -1726404.7   -3.2346322   -15.796686     19.61044    218.91677   -127.75247    34.322109 
  196200   -1726404.7   -3.2398422   -15.792498    19.604108    218.90608   -127.72708    34.319227 
  196300   -1726404.7   -3.2447137   -15.788153    19.597496    218.89521   -127.70203    34.316453 
  196400   -1726404.7   -3.2493698    -15.78425    19.591982    218.88453   -127.67722    34.312826 
  196500   -1726404.7   -3.2555098   -15.780065    19.585589    218.87381    -127.6519    34.309106 
  196600   -1726404.7   -3.2613209   -15.775043    19.580208    218.86272   -127.62693    34.306664 
  196700   -1726404.7   -3.2662408   -15.769227    19.575502    218.85074   -127.60149     34.30402 
  196800   -1726404.7    -3.271015   -15.764301    19.569663     218.8389   -127.57626    34.301156 
  196900   -1726404.7   -3.2748407   -15.759656    19.563557    218.82753   -127.55327    34.298396 
  197000   -1726404.7   -3.2806471   -15.756652    19.556104    218.81656   -127.52865    34.295849 
  197100   -1726404.7   -3.2850579   -15.753261    19.549202    218.80447   -127.50412    34.293335 
  197200   -1726404.7   -3.2896807   -15.749784     19.54191    218.79228   -127.47935    34.291096 
  197300   -1726404.7   -3.2949446   -15.746159    19.534882    218.78029   -127.45466    34.289432 
  197400   -1726404.7   -3.2999216   -15.742646    19.527522    218.76876    -127.4306     34.28799 
  197500   -1726404.7   -3.3049746    -15.73988    19.520227    218.75649   -127.40654    34.286088 
  197600   -1726404.7   -3.3105269   -15.738394     19.51287    218.74411   -127.38267     34.28455 
  197700   -1726404.7   -3.3158519   -15.736365    19.504773    218.73099    -127.3591    34.283201 
  197800   -1726404.7   -3.3196848   -15.731581    19.497974    218.71708   -127.33491    34.281518 
  197900   -1726404.7   -3.3241447   -15.728284    19.490254    218.70238   -127.31158    34.280113 
  198000   -1726404.7   -3.3287458   -15.724425    19.482729    218.68708   -127.28951    34.279232 
  198100   -1726404.7   -3.3340007   -15.721168    19.474324    218.67168   -127.26778    34.279114 
  198200   -1726404.7   -3.3379818   -15.717262    19.466768    218.65637    -127.2466    34.279279 
  198300   -1726404.7   -3.3409903   -15.712007    19.460181    218.64071    -127.2258    34.279425 
  198400   -1726404.7   -3.3436707   -15.707545    19.452417    218.62477   -127.20714    34.280496 
  198500   -1726404.8   -3.3458622   -15.702709    19.446157    218.60737   -127.18869     34.28103 
  198600   -1726404.8   -3.3469722   -15.695308    19.440877    218.59001   -127.17005    34.280813 
  198700   -1726404.8   -3.3486515   -15.684257    19.435846    218.57216   -127.15175    34.281254 
  198800   -1726404.8    -3.348598    -15.67953    19.429714    218.55349   -127.13498    34.280815 
  198900   -1726404.8   -3.3485914   -15.667824    19.426135    218.53497   -127.11706    34.279835 
  199000   -1726404.8   -3.3469261   -15.654041    19.423142    218.51583   -127.09843    34.277949 
  199100   -1726404.8   -3.3451829   -15.638114    19.422069    218.49972   -127.07791    34.275777 
  199200   -1726404.8   -3.3449542   -15.626943    19.418212    218.48127   -127.05646    34.272531 
  199300   -1726404.8   -3.3456095   -15.615647    19.415222    218.46299   -127.03457    34.268888 
  199400   -1726404.8   -3.3464753   -15.603997     19.41221    218.44471   -127.01274    34.265022 
  199500   -1726404.8   -3.3485336   -15.593839    19.408585    218.42723   -126.98913    34.260374 
  199600   -1726404.8   -3.3508261   -15.585623    19.405119    218.41058   -126.96484    34.254472 
  199700   -1726404.8   -3.3549126   -15.579156    19.400432    218.39425   -126.94004      34.2491 
  199800   -1726404.8   -3.3581443   -15.571067     19.39698    218.37835   -126.91508    34.244992 
  199900   -1726404.8   -3.3646552   -15.564965    19.392022    218.36183    -126.8897    34.239527 
  200000   -1726404.8   -3.3689398   -15.558863    19.387039    218.34655   -126.86454     34.23435 
  200100   -1726404.8   -3.3741821   -15.553236    19.382171    218.33151   -126.83904    34.229385 
  200200   -1726404.8   -3.3807563   -15.547424    19.378136     218.3176   -126.81379     34.22479 
  200300   -1726404.8   -3.3846349   -15.540914    19.373713    218.30272    -126.7884    34.220275 
  200400   -1726404.8   -3.3892068    -15.53464    19.368232    218.28795   -126.76299     34.21504 
  200500   -1726404.8   -3.3943925   -15.528281    19.363956    218.27308   -126.73709    34.210961 
  200600   -1726404.8   -3.3992605   -15.520796     19.35896    218.25838   -126.71168      34.2062 
  200700   -1726404.8   -3.4032716   -15.514103    19.353962    218.24413   -126.68546    34.201839 
  200800   -1726404.8   -3.4084512   -15.507633    19.348827    218.22919   -126.65948    34.197161 
  200900   -1726404.8   -3.4133279   -15.500809    19.343415    218.21574   -126.63238    34.192074 
  201000   -1726404.8   -3.4173301   -15.492637    19.339032    218.20207   -126.60615    34.188043 
  201100   -1726404.8   -3.4218252   -15.484995    19.334298    218.18853   -126.57978    34.183572 
  201200   -1726404.8    -3.425519   -15.475962    19.329325    218.17451   -126.55299    34.178936 
  201300   -1726404.8   -3.4281951   -15.468793    19.324678    218.16101   -126.52676    34.174657 
  201400   -1726404.8    -3.430369   -15.461676    19.321111    218.14817   -126.50061    34.170855 
  201500   -1726404.8   -3.4346883   -15.454482    19.316058    218.13475   -126.47421    34.166522 
  201600   -1726404.8   -3.4381839   -15.447328      19.3111    218.12115   -126.44759    34.161982 
  201700   -1726404.8   -3.4419608   -15.439634    19.306128    218.10658   -126.42151    34.157336 
  201800   -1726404.8   -3.4460913   -15.432048    19.301656    218.09265   -126.39583    34.152928 
  201900   -1726404.8   -3.4486075   -15.425776    19.296876    218.07744    -126.3692    34.148145 
  202000   -1726404.8   -3.4528739   -15.418147    19.291613    218.06394   -126.34281    34.143731 
  202100   -1726404.8   -3.4569132   -15.410353     19.28692    218.05043   -126.31709    34.139402 
  202200   -1726404.8   -3.4605592   -15.402758    19.282268     218.0371   -126.29112    34.134923 
  202300   -1726404.8   -3.4649446   -15.395693    19.277482    218.02306   -126.26453    34.130723 
  202400   -1726404.8   -3.4694942   -15.388411    19.272955    218.00906   -126.23787    34.126394 
  202500   -1726404.8   -3.4724905   -15.380925    19.268468    217.99565   -126.21144     34.12215 
  202600   -1726404.8   -3.4762521   -15.372545    19.263649    217.98258   -126.18507    34.117866 
  202700   -1726404.8   -3.4794537   -15.365812    19.259187    217.96877   -126.15866    34.113289 
  202800   -1726404.8   -3.4824114   -15.358926    19.254816      217.955   -126.13208     34.10865 
  202900   -1726404.8   -3.4856158   -15.351658    19.250569    217.94088   -126.10556    34.105147 
  203000   -1726404.8   -3.4902545   -15.345838    19.245358    217.92797   -126.07911    34.101265 
  203100   -1726404.8   -3.4934536   -15.336649    19.241296    217.91441   -126.05224     34.09705 
  203200   -1726404.8   -3.4965634   -15.328644    19.237599    217.90053   -126.02553    34.092925 
  203300   -1726404.8   -3.4999045   -15.321056    19.233232    217.88808   -125.99938    34.088594 
  203400   -1726404.8   -3.5047151   -15.313375    19.228485    217.87542   -125.97336    34.084994 
  203500   -1726404.8    -3.508633   -15.306025     19.22398    217.86231   -125.94732    34.081005 
  203600   -1726404.8   -3.5122451   -15.298723    19.219639    217.84923   -125.92133    34.077679 
  203700   -1726404.8   -3.5146007   -15.291233    19.215609    217.83626   -125.89524    34.073332 
  203800   -1726404.8   -3.5176271   -15.284456     19.21107    217.82241   -125.86875    34.068983 
  203900   -1726404.8   -3.5222193   -15.276903     19.20636    217.80879   -125.84283    34.065627 
  204000   -1726404.8   -3.5259918   -15.269573    19.201828    217.79541   -125.81661    34.061555 
  204100   -1726404.8   -3.5287496   -15.261894    19.198024    217.78246   -125.79019     34.05735 
  204200   -1726404.8   -3.5329023   -15.254705    19.192584    217.76963   -125.76339    34.053648 
  204300   -1726404.8   -3.5366785   -15.246417    19.187747    217.75656   -125.73733    34.048474 
  204400   -1726404.8   -3.5396759   -15.239816     19.18321    217.74312   -125.71101    34.043808 
  204500   -1726404.8   -3.5421909   -15.231779    19.178764    217.72936   -125.68474     34.03913 
  204600   -1726404.8   -3.5449056   -15.224385    19.174414    217.71674   -125.65863     34.03493 
  204700   -1726404.8   -3.5489782   -15.217604    19.169557    217.70284   -125.63314    34.030441 
  204800   -1726404.8   -3.5520425   -15.208604    19.165536    217.68858   -125.60697    34.025816 
  204900   -1726404.8   -3.5530349   -15.199635    19.161863    217.67311   -125.58166    34.021484 
  205000   -1726404.8   -3.5562536   -15.192046    19.156653    217.65878   -125.55515    34.016746 
  205100   -1726404.8    -3.558758   -15.183914    19.151848    217.64402   -125.52878    34.012318 
  205200   -1726404.8      -3.5611   -15.176552    19.147483    217.62943   -125.50349    34.008229 
  205300   -1726404.8   -3.5638826   -15.169086    19.143454    217.61516   -125.47782    34.003822 
  205400   -1726404.8   -3.5669828   -15.162542    19.139001      217.601   -125.45209    34.000155 
  205500   -1726404.8   -3.5702784   -15.155835    19.133547     217.5868   -125.42591    33.995663 
  205600   -1726404.8   -3.5729989   -15.148614    19.128981    217.57282   -125.40023    33.991051 
  205700   -1726404.8   -3.5768794   -15.141645    19.124421    217.55913   -125.37464    33.986658 
  205800   -1726404.8   -3.5780291   -15.132926    19.120302    217.54535   -125.34874    33.982523 
  205900   -1726404.8   -3.5811509   -15.124571    19.115611    217.53143   -125.32306    33.978001 
  206000   -1726404.8   -3.5843521   -15.117172    19.111257     217.5172   -125.29818    33.973394 
  206100   -1726404.8   -3.5873967   -15.110757    19.106717      217.504   -125.27311    33.969094 
  206200   -1726404.9   -3.5901107   -15.103016    19.102032    217.49028   -125.24758    33.964713 
  206300   -1726404.9   -3.5935025   -15.096663    19.098015    217.47665   -125.22204    33.960329 
  206400   -1726404.9   -3.5969958   -15.089855    19.093107    217.46271   -125.19599    33.955663 
  206500   -1726404.9   -3.6017791   -15.083276    19.088998    217.44796   -125.17002    33.949929 
  206600   -1726404.9   -3.6062258   -15.076316    19.084673    217.43367   -125.14453    33.945625 
  206700   -1726404.9   -3.6093134   -15.069932    19.080156    217.41939   -125.11936    33.941371 
  206800   -1726404.9   -3.6130173   -15.063267    19.075989    217.40465   -125.09385    33.937018 
  206900   -1726404.9   -3.6177565   -15.056411    19.071252     217.3905   -125.06794    33.933018 
  207000   -1726404.9   -3.6207564    -15.04894     19.06604     217.3758   -125.04208    33.929186 
  207100   -1726404.9   -3.6244244   -15.041203    19.061431     217.3611   -125.01648    33.925236 
  207200   -1726404.9   -3.6286356   -15.033752     19.05692    217.34591   -124.99092    33.921113 
  207300   -1726404.9    -3.631543   -15.025453    19.052837      217.331    -124.9655    33.916968 
  207400   -1726404.9   -3.6341707   -15.017253    19.048875    217.31546   -124.94008    33.912661 
  207500   -1726404.9   -3.6372536   -15.010158    19.045479    217.30022   -124.91496    33.908405 
  207600   -1726404.9   -3.6397827   -15.001212    19.042176    217.28513      -124.89     33.90431 
  207700   -1726404.9   -3.6417704   -14.993507    19.037528    217.26933   -124.86467     33.89956 
  207800   -1726404.9   -3.6448375   -14.985169    19.033061    217.25461   -124.83919    33.895255 
  207900   -1726404.9   -3.6482673   -14.977811    19.027891    217.23994   -124.81379    33.891394 
  208000   -1726404.9   -3.6520455     -14.9702    19.023285    217.22529   -124.78802    33.886972 
  208100   -1726404.9   -3.6561527   -14.962252    19.017835    217.21091   -124.76213     33.88461 
  208200   -1726404.9   -3.6606285   -14.954761    19.013912    217.19474    -124.7367    33.881164 
  208300   -1726404.9   -3.6646843   -14.947578        19.01    217.17962   -124.71125    33.877459 
  208400   -1726404.9   -3.6674817   -14.940942    19.007742    217.16455   -124.68628    33.872993 
  208500   -1726404.9   -3.6708127   -14.934256    19.003668    217.14893   -124.66086    33.868756 
  208600   -1726404.9   -3.6740276   -14.927001     18.99886    217.13344   -124.63495    33.863897 
  208700   -1726404.9   -3.6763691    -14.92074    18.994844    217.11868   -124.60988    33.859131 
  208800   -1726404.9   -3.6807882   -14.915047    18.990053    217.10456   -124.58568    33.854651 
  208900   -1726404.9   -3.6840145    -14.90798    18.985838    217.08989   -124.56066    33.850294 
  209000   -1726404.9     -3.68736   -14.901366     18.98112    217.07487   -124.53557    33.845466 
  209100   -1726404.9    -3.691017   -14.894629    18.976662    217.06049   -124.51046    33.840808 
  209200   -1726404.9   -3.6927204   -14.888714    18.972438    217.04721   -124.48647    33.836071 
  209300   -1726404.9   -3.6955534    -14.88109    18.969179     217.0333   -124.46151      33.8313 
  209400   -1726404.9   -3.6987361   -14.874216    18.964655    217.01885   -124.43665    33.827043 
  209500   -1726404.9    -3.702003   -14.867677     18.96105    217.00528   -124.41118    33.822849 
  209600   -1726404.9   -3.7057011   -14.862995     18.95595    216.99041   -124.38718     33.81824 
  209700   -1726404.9   -3.7082752   -14.856313    18.951818    216.97568   -124.36279    33.814159 
  209800   -1726404.9   -3.7111346   -14.849723    18.947857    216.96114   -124.33845    33.809648 
  