LAMMPS (23 Jun 2022)
Running on 40 partitions of processors
Step MaxReplicaForce MaxAtomForce GradV0 GradV1 GradVc EBF EBR RDT RD1 PE1 RD2 PE2 ... RDN PEN
0      2.92777    0.8391221 0.00062851509 2.4945603e-05    2.9279753    1.3978448    1.3599277    7.2415519                    0                    0          0.025641026          0.010974935          0.051282051          0.042860601          0.076923077          0.093723711            0.1025641           0.16105258           0.12820513           0.24230654           0.15384615            0.3347803           0.17948718           0.43571503           0.20512821           0.54246883           0.23076923            0.6523204           0.25641026           0.76252077           0.28205128           0.87040968           0.30769231           0.97350693           0.33333333            1.0695079           0.35897436            1.1563145           0.38461538            1.2320507           0.41025641            1.2951046           0.43589744            1.3441234           0.46153846            1.3780337           0.48717949            1.3960778           0.51282051            1.3978448           0.53846154            1.3832543           0.56410256            1.3526387           0.58974359            1.3067032           0.61538462             1.246463           0.64102564            1.1732296           0.66666667            1.0886441           0.69230769           0.99465334           0.71794872           0.89345676           0.74358974           0.78751483           0.76923077           0.67930655           0.79487179           0.57137411           0.82051282           0.46647984           0.84615385           0.36723963           0.87179487           0.27634717            0.8974359            0.1966339           0.92307692           0.13055857           0.94871795           0.08049742           0.97435897          0.048881732                    1          0.037917124 
100 0.0086947742 2.6317595e-06 5.2327072e-05 2.7264517e-06  0.050768488   0.91929446   0.88137712    10.624164                    0                    0          0.023790533          0.000234081          0.047568292        0.00093608379          0.071324794          0.002105753          0.095058715          0.003743324           0.11878214         0.0058510176            0.1425309         0.0084361134            0.1663714          0.011519637           0.19037793          0.015213666            0.2145482          0.020404942           0.23923707           0.02987412           0.26433165          0.047870338           0.28976005          0.082823569           0.31554161           0.15341382           0.34176081           0.28057796            0.3684781           0.45520994           0.39565256           0.64218052           0.42324797           0.80086192           0.45118394           0.89790931           0.47935803           0.91929446           0.50768778           0.87284439           0.53607071            0.7777102           0.56436423           0.65461237            0.5924588           0.51792368           0.62032209           0.38066735           0.64795508           0.25871219           0.67528021           0.16730577           0.70212194           0.11222746           0.72845019          0.083213164           0.75439562          0.067522139           0.77989245          0.058866031           0.80482913          0.053902232           0.82956477          0.050036339           0.85413663          0.046769767           0.87861826            0.0440353           0.90303445          0.041815265            0.9273773           0.04010087           0.95164126          0.038884369           0.97583919          0.038158368                    1          0.037917344 
200 0.0031696733 5.4506527e-07 3.2291489e-05 1.8985467e-06  0.067440757   0.91787779   0.87996042    10.624777                    0                    0          0.024042366        0.00022770412          0.048109126        0.00091169137          0.072224547         0.0020549901          0.096412438         0.0036627217           0.12069541         0.0057435085           0.14509188         0.0083194275           0.16960914          0.011476061           0.19425304          0.015580639           0.21906395          0.021897942           0.24408575           0.03325679           0.26934722          0.054764395           0.29486223          0.096818071           0.32063284           0.18053041           0.34665516           0.32026692            0.3729173           0.49746976           0.39939934           0.67655688           0.42607469           0.82099651           0.45291102           0.90432039           0.47987135           0.91787779           0.50691604           0.87058788           0.53400384           0.77958174           0.56109327           0.66259923           0.58814451           0.53179794           0.61512088           0.39863139           0.64199008           0.27722346           0.66872507           0.18225865           0.69530375           0.12155576            0.7217064          0.088535976           0.74791282           0.07058206           0.77390566           0.06042592           0.79967458          0.054305651           0.82523392          0.050066755           0.85060974          0.046728993           0.87580888          0.043994971           0.90084768          0.041788755           0.92575385          0.040087188           0.95055912          0.038879095           0.97529659          0.038157269                    1          0.037917376 
300 0.0020800002 2.2451107e-07 2.0215532e-05 1.4239835e-06  0.078248972   0.91677926   0.87886188    10.637264                    0                    0           0.02442371        0.00023280829           0.04886558        0.00093184467          0.073343361         0.0020994069          0.097873765         0.0037399495           0.12247111          0.005863767            0.1471452         0.0085019213           0.17190311          0.011768404           0.19675777          0.016119694           0.22173102          0.023028151           0.24684743          0.035630146           0.27212324           0.05952313           0.29756467           0.10632102           0.32317147           0.19770303           0.34893949           0.34322551           0.37486014             0.520505           0.40092083           0.69459054            0.4271062           0.83138063           0.45339866           0.90756526           0.47977876           0.91677926           0.50622599           0.86835773           0.53271932            0.7785779           0.55923755           0.66398371           0.58576019           0.53581587            0.6122681           0.40477608           0.63874389           0.28411411           0.66517223           0.18819956           0.69153964           0.12552967           0.71783323          0.090963592           0.74403855          0.072095731           0.77013977          0.061388477           0.79612041          0.054934233           0.82196896          0.050483238           0.84768768          0.047012912            0.8732858          0.044188887            0.8987738          0.041914712           0.92416726          0.040159683            0.9494869          0.038911953           0.97475621          0.038165608                    1          0.037917389 
400 0.0035540342 1.1542614e-06 1.1986328e-05 1.1025508e-06  0.088465818    0.9155919    0.8776745    10.646384                    0                    0          0.024712051        0.00023688417          0.049435018        0.00094792797           0.07417946         0.0021350282          0.098954792         0.0038032973           0.12376812         0.0059661149           0.14862463         0.0086592381           0.17353064           0.01201257            0.1984963          0.016562239           0.22353818          0.023972568           0.24867545          0.037611144           0.27392019          0.063476552           0.29927705           0.11418673           0.32474664           0.21142774           0.35032717           0.36090399           0.37601342            0.5379588           0.40179867            0.7082406           0.42767461           0.83933827           0.45363166           0.91005824           0.47965931            0.9155919           0.50574645           0.86562392           0.53188203           0.77598129           0.55805471           0.66246825           0.58425341           0.53573799           0.61046778            0.4060717           0.63668833           0.28628164           0.66290649           0.19045587           0.68911446           0.12725007           0.71530413          0.092132013           0.74146568          0.072903074           0.76758706          0.061959793           0.79365373          0.055356838           0.81965258          0.050802459           0.84557929          0.047245437           0.87143771          0.044347865           0.89723438          0.042015914           0.92297707          0.040217308           0.94867646          0.038938058           0.97434587          0.038172246                    1          0.037917395 
500 0.0011618154 7.4956326e-08 7.412455e-06 9.0079238e-07  0.096830633   0.91451731   0.87659991    10.652008                    0                    0          0.024869214        0.00023864902          0.049745351        0.00095500035          0.074634871         0.0021515277          0.099542849          0.003835487           0.12447268         0.0060222931           0.14942781         0.0087478597           0.17441351          0.012154358           0.19943813          0.016839503           0.22451613             0.024597            0.2496637          0.038944782            0.2748911          0.066167245            0.3002028           0.11958146           0.32560015           0.22069429           0.35108252           0.37268462           0.37664747           0.54960997           0.40229115           0.71746137           0.42800874           0.84481809           0.45379468           0.91177013           0.47964283           0.91451731           0.50554665           0.86303453           0.53149995           0.77297389           0.55749613           0.65972282           0.58352865           0.53359458           0.60959131           0.40467108           0.63567841           0.28561996           0.66178469           0.19034291           0.68790508           0.12741605           0.71403384          0.092377603           0.74016354          0.073150568           0.76628442           0.06218467           0.79238387          0.055551441           0.81844967          0.050962447           0.84447635          0.047367336           0.87046512          0.044431427           0.89641989          0.042066753           0.92234481          0.040244742           0.94824485          0.038950152           0.97412705          0.038175306                    1          0.037917396 
560 0.00099372342 5.9938773e-08 5.5840835e-06 8.1104193e-07   0.10157012   0.91386868   0.87595129    10.654621                    0                    0          0.024934102        0.00023913462          0.049873533        0.00095707946          0.074823042         0.0021570802          0.099785923         0.0038478615           0.12476439         0.0060451094           0.14976148         0.0087845066           0.17478188          0.012215771           0.19983319          0.016968472            0.2249288          0.024899401            0.2500835          0.039600531           0.27530659          0.067504751           0.30060244           0.12228487           0.32597279           0.22531349           0.35141774           0.37854153           0.37693583           0.55543041           0.40252444           0.72211318           0.42818021           0.84761675           0.45389919           0.91263479           0.47967698           0.91386868           0.50550878           0.86145973           0.53139025           0.77101548           0.55731656           0.65773831           0.58328291           0.53179125           0.60928473           0.40318308           0.63531779            0.2845584           0.66137811           0.18972523           0.68746166            0.1271574           0.71356361          0.092313474           0.73967743          0.073170719           0.76579434          0.062239519           0.79190266          0.055614528            0.8179909          0.051019382           0.84405347          0.047412136           0.87009058          0.044462403           0.89610495          0.042084924           0.92209946          0.040253743           0.94807697          0.038953835           0.97404183          0.038176214                    1          0.037917396 
Climbing replica = 20
Step MaxReplicaForce MaxAtomForce GradV0 GradV1 GradVc EBF EBR RDT RD1 PE1 RD2 PE2 ... RDN PEN
560   0.10157012 0.0010122585 5.5840835e-06 8.1104193e-07   0.10157012   0.91386868   0.87595129    10.654621                    0                    0          0.024934102        0.00023913465          0.049873533        0.00095707949          0.074823042         0.0021570803          0.099785923         0.0038478616           0.12476439         0.0060451094           0.14976148         0.0087845066           0.17478188          0.012215771           0.19983319          0.016968472            0.2249288          0.024899401            0.2500835          0.039600531           0.27530659          0.067504751           0.30060244           0.12228487           0.32597279           0.22531349           0.35141774           0.37854153           0.37693583           0.55543041           0.40252444           0.72211318           0.42818021           0.84761675           0.45389919           0.91263479           0.47967698           0.91386868           0.50550878           0.86145973           0.53139025           0.77101548           0.55731656           0.65773831           0.58328291           0.53179125           0.60928473           0.40318308           0.63531779            0.2845584           0.66137811           0.18972523           0.68746166            0.1271574           0.71356361          0.092313474           0.73967743          0.073170719           0.76579434          0.062239519           0.79190266          0.055614528            0.8179909          0.051019383           0.84405347          0.047412136           0.87009058          0.044462403           0.89610495          0.042084924           0.92209946          0.040253743           0.94807697          0.038953835           0.97404183          0.038176214                    1          0.037917396 
