LAMMPS (12 Dec 2018)
units			metal
boundary		p p p
atom_style		atomic

lattice			fcc 4.0782 origin 0 0 0 orient x 1 1 1 orient y 1 1 -2 orient z -1 1 0
Lattice spacing in x,y,z = 7.06365 6.65967 5.76745
region			mybox block -50 200 -50 200 0 2.88372 units box
create_box		1 mybox
Created orthogonal box = (-50 -50 0) to (200 200 2.88372)
  2 by 4 by 1 MPI processor grid

region			l1 plane 65 113 0 -1 0 0 units box
region			l2 plane 65 113 0 -14 -55 0 units box
region			l3 plane 0 0 0 1 0 0 units box
region			l4 plane 0 0 0 0 1 0 units box
region			l5 plane 92 45 0 -37 48 0 units box
region			left intersect 5 l1 l2 l3 l4 l5
create_atoms	1 region left
Created 1297 atoms
  Time spent = 0.00725245 secs


region			m1 plane 92 45 0 -37 48 0 units box
region			m2 plane 92 45 0 -68.2 -27.5 0 units box
region			m3 plane 65 113 0 1 0 0 units box
region			middle intersect 3 m1 m2 m3
lattice			fcc 4.0782 origin 0 0 0 orient x -1 -1 -1 orient y 1 1 -2 orient z 1 -1 0
Lattice spacing in x,y,z = 7.06365 6.65967 5.76745
create_atoms	1 region middle
Created 205 atoms
  Time spent = 0.00604534 secs


region			r1 plane 92 45 0 -17.7 59.1 0 units box
region			r2 plane 92 45 0 68.2 27.5 0 units box
region			r3 plane 65 113 0 34.8 -19.8 0 units box
region			r4 plane 150 0 0 -1 0 0 units box
region			r5 plane 0 150 0 0 -1 0 units box
region			right intersect 5 r1 r2 r3 r4 r5
lattice			fcc 4.0782 origin 0 0 0 orient x 20 20 47 orient y 47 47 -40 orient z -1 1 0
Lattice spacing in x,y,z = 6.4681 7.04445 5.76745
create_atoms	1 region right
Created 1211 atoms
  Time spent = 0.0053544 secs

region			left_fix block 0 10 INF INF INF INF units box
region			right_fix block 140 150 INF INF INF INF units box

group			right region right
1211 atoms in group right
group			left_end region left_fix
254 atoms in group left_end
group			right_end region right_fix
151 atoms in group right_end

mass			1 197
pair_style		eam
pair_coeff		* * /home/yzhang951/Au_Al/Au_u3.eam
Reading potential file /home/yzhang951/Au_Al/Au_u3.eam with DATE: 2007-06-11
delete_atoms	overlap 1.0 all all
Neighbor list info ...
  update every 1 steps, delay 10 steps, check yes
  max neighbors/atom: 2000, page size: 100000
  master list distance cutoff = 7.55
  ghost atom cutoff = 7.55
  binsize = 3.775, bins = 67 67 1
  2 neighbor lists, perpetual/occasional/extra = 1 1 0
  (1) command delete_atoms, occasional
      attributes: full, newton on
      pair build: full/bin/atomonly
      stencil: full/bin/3d
      bin: standard
  (2) pair eam, perpetual
      attributes: half, newton on
      pair build: half/bin/atomonly/newton
      stencil: half/bin/3d/newton
      bin: standard
Deleted 0 atoms, new total = 2713

dump			1 all cfg 1000000 Au*.cfg mass type xs ys zs fx fy fz
dump_modify		1 element Au sort id

minimize		1e-20 1e-20 1000000 1000000
WARNING: Using 'neigh_modify every 1 delay 0 check yes' setting during minimization (../min.cpp:168)
Neighbor list info ...
  update every 1 steps, delay 0 steps, check yes
  max neighbors/atom: 2000, page size: 100000
  master list distance cutoff = 7.55
  ghost atom cutoff = 7.55
  binsize = 3.775, bins = 67 67 1
  1 neighbor lists, perpetual/occasional/extra = 1 0 0
  (1) pair eam, perpetual
      attributes: half, newton on
      pair build: half/bin/atomonly/newton
      stencil: half/bin/3d/newton
      bin: standard
Per MPI rank memory allocation (min/avg/max) = 1.568 | 5.357 | 6.027 Mbytes
Step Temp E_pair E_mol TotEng Press 
       0            0   -10404.565            0   -10404.565    1794.6478 
    1029            0   -10566.826            0   -10566.826    -233.7993 
Loop time of 2.9595 on 8 procs for 1029 steps with 2713 atoms

98.3% CPU use with 8 MPI tasks x no OpenMP threads

Minimization stats:
  Stopping criterion = energy tolerance
  Energy initial, next-to-last, final = 
        -10404.5648309     -10566.8263238     -10566.8263238
  Force two-norm initial, final = 346.401 1.98558e-05
  Force max component initial, final = 167.679 4.49082e-06
  Final line search alpha, max atom move = 1 4.49082e-06
  Iterations, force evaluations = 1029 2009

MPI task timing breakdown:
Section |  min time  |  avg time  |  max time  |%varavg| %total
---------------------------------------------------------------
Pair    | 0.00049806 | 1.6458     | 2.8008     |  68.4 | 55.61
Neigh   | 2.9564e-05 | 0.0038685  | 0.0090511  |   5.7 |  0.13
Comm    | 0.00056767 | 0.79962    | 1.561      |  68.6 | 27.02
Output  | 0          | 0          | 0          |   0.0 |  0.00
Modify  | 0          | 0          | 0          |   0.0 |  0.00
Other   |            | 0.5102     |            |       | 17.24

Nlocal:    339.125 ave 793 max 0 min
Histogram: 2 2 0 0 1 0 0 1 0 2
Nghost:    2683.12 ave 6013 max 0 min
Histogram: 2 1 1 0 1 0 0 1 0 2
Neighs:    14368.9 ave 33775 max 0 min
Histogram: 2 2 0 0 1 0 0 1 0 2

Total # of neighbors = 114951
Ave neighs/atom = 42.3704
Neighbor list builds = 6
Dangerous builds = 0

fix				1 left_end setforce 0 0 0
fix				2 right_end setforce 0 0 0

#### Rotation simulation

label			loopa
variable		a loop 300
displace_atoms	right rotate 79 79 0 0 0 1 -0.1 units box
delete_atoms	overlap 2.65 all all
Neighbor list info ...
  update every 1 steps, delay 10 steps, check yes
  max neighbors/atom: 2000, page size: 100000
  master list distance cutoff = 7.55
  ghost atom cutoff = 7.55
  binsize = 3.775, bins = 67 67 1
  2 neighbor lists, perpetual/occasional/extra = 1 1 0
  (1) command delete_atoms, occasional
      attributes: full, newton on
      pair build: full/bin/atomonly
      stencil: full/bin/3d
      bin: standard
  (2) pair eam, perpetual
      attributes: half, newton on
      pair build: half/bin/atomonly/newton
      stencil: half/bin/3d/newton
      bin: standard
Deleted 2 atoms, new total = 2711
minimize		1e-20 1e-20 1000000 1000000
WARNING: Using 'neigh_modify every 1 delay 0 check yes' setting during minimization (../min.cpp:168)
Neighbor list info ...
  update every 1 steps, delay 0 steps, check yes
  max neighbors/atom: 2000, page size: 100000
  master list distance cutoff = 7.55
  ghost atom cutoff = 7.55
  binsize = 3.775, bins = 67 67 1
  1 neighbor lists, perpetual/occasional/extra = 1 0 0
  (1) pair eam, perpetual
      attributes: half, newton on
      pair build: half/bin/atomonly/newton
      stencil: half/bin/3d/newton
      bin: standard
Per MPI rank memory allocation (min/avg/max) = 1.568 | 5.357 | 6.027 Mbytes
Step Temp E_pair E_mol TotEng Press 
    1029            0   -10558.138            0   -10558.138   -288.15346 
    1377            0   -10559.451            0   -10559.451   -254.80213 
Loop time of 0.975863 on 8 procs for 348 steps with 2711 atoms

98.1% CPU use with 8 MPI tasks x no OpenMP threads

Minimization stats:
  Stopping criterion = energy tolerance
  Energy initial, next-to-last, final = 
        -10558.1376698     -10559.4514944     -10559.4514944
  Force two-norm initial, final = 1.14552 5.0138e-06
  Force max component initial, final = 0.493351 1.07257e-06
  Final line search alpha, max atom move = 1 1.07257e-06
  Iterations, force evaluations = 348 679

MPI task timing breakdown:
Section |  min time  |  avg time  |  max time  |%varavg| %total
---------------------------------------------------------------
Pair    | 0.00017118 | 0.5419     | 0.92205    |  39.2 | 55.53
Neigh   | 8.1062e-06 | 0.0011982  | 0.0029233  |   3.2 |  0.12
Comm    | 0.0002017  | 0.26288    | 0.51376    |  39.4 | 26.94
Output  | 0          | 0          | 0          |   0.0 |  0.00
Modify  | 4.8399e-05 | 0.00061235 | 0.0013168  |   0.0 |  0.06
Other   |            | 0.1693     |            |       | 17.35

Nlocal:    338.875 ave 793 max 0 min
Histogram: 2 2 0 0 1 0 0 1 0 2
Nghost:    2675.5 ave 6013 max 0 min
Histogram: 2 1 1 0 1 0 0 1 0 2
Neighs:    14370.5 ave 33786 max 0 min
Histogram: 2 2 0 0 1 0 0 1 0 2

Total # of neighbors = 114964
Ave neighs/atom = 42.4065
Neighbor list builds = 2
Dangerous builds = 0
next			a
jump			in.relax loopa
variable		a loop 300
displace_atoms	right rotate 79 79 0 0 0 1 -0.1 units box
delete_atoms	overlap 2.65 all all
Neighbor list info ...
  update every 1 steps, delay 10 steps, check yes
  max neighbors/atom: 2000, page size: 100000
  master list distance cutoff = 7.55
  ghost atom cutoff = 7.55
  binsize = 3.775, bins = 67 67 1
  2 neighbor lists, perpetual/occasional/extra = 1 1 0
  (1) command delete_atoms, occasional
      attributes: full, newton on
      pair build: full/bin/atomonly
      stencil: full/bin/3d
      bin: standard
  (2) pair eam, perpetual
      attributes: half, newton on
      pair build: half/bin/atomonly/newton
      stencil: half/bin/3d/newton
      bin: standard
Deleted 1 atoms, new total = 2710
minimize		1e-20 1e-20 1000000 1000000
WARNING: Using 'neigh_modify every 1 delay 0 check yes' setting during minimization (../min.cpp:168)
Neighbor list info ...
  update every 1 steps, delay 0 steps, check yes
  max neighbors/atom: 2000, page size: 100000
  master list distance cutoff = 7.55
  ghost atom cutoff = 7.55
  binsize = 3.775, bins = 67 67 1
  1 neighbor lists, perpetual/occasional/extra = 1 0 0
  (1) pair eam, perpetual
      attributes: half, newton on
      pair build: half/bin/atomonly/newton
      stencil: half/bin/3d/newton
      bin: standard
Per MPI rank memory allocation (min/avg/max) = 1.568 | 5.357 | 6.027 Mbytes
Step Temp E_pair E_mol TotEng Press 
    1377            0   -10554.203            0   -10554.203    -296.7143 
    1764            0   -10555.517            0   -10555.517   -263.14309 
Loop time of 1.09606 on 8 procs for 387 steps with 2710 atoms

98.0% CPU use with 8 MPI tasks x no OpenMP threads

Minimization stats:
  Stopping criterion = energy tolerance
  Energy initial, next-to-last, final = 
        -10554.2032894     -10555.5171865     -10555.5171865
  Force two-norm initial, final = 1.14557 2.73769e-06
  Force max component initial, final = 0.492843 5.23397e-07
  Final line search alpha, max atom move = 1 5.23397e-07
  Iterations, force evaluations = 387 757

MPI task timing breakdown:
Section |  min time  |  avg time  |  max time  |%varavg| %total
---------------------------------------------------------------
Pair    | 0.00018096 | 0.60707    | 1.0362     |  41.6 | 55.39
Neigh   | 8.8215e-06 | 0.0011605  | 0.0028071  |   3.1 |  0.11
Comm    | 0.00023246 | 0.29628    | 0.58267    |  41.6 | 27.03
Output  | 0          | 0          | 0          |   0.0 |  0.00
Modify  | 4.6492e-05 | 0.00068885 | 0.001451   |   0.0 |  0.06
Other   |            | 0.1909     |            |       | 17.41

Nlocal:    338.75 ave 793 max 0 min
Histogram: 2 2 0 0 1 0 0 1 0 2
Nghost:    2674.25 ave 6013 max 0 min
Histogram: 2 1 1 0 1 0 0 1 0 2
Neighs:    14363.2 ave 33796 max 0 min
Histogram: 2 2 0 0 1 0 0 1 0 2

Total # of neighbors = 114906
Ave neighs/atom = 42.4007
Neighbor list builds = 2
Dangerous builds = 0
next			a
jump			in.relax loopa
variable		a loop 300
displace_atoms	right rotate 79 79 0 0 0 1 -0.1 units box
delete_atoms	overlap 2.65 all all
Neighbor list info ...
  update every 1 steps, delay 10 steps, check yes
  max neighbors/atom: 2000, page size: 100000
  master list distance cutoff = 7.55
  ghost atom cutoff = 7.55
  binsize = 3.775, bins = 67 67 1
  2 neighbor lists, perpetual/occasional/extra = 1 1 0
  (1) command delete_atoms, occasional
      attributes: full, newton on
      pair build: full/bin/atomonly
      stencil: full/bin/3d
      bin: standard
  (2) pair eam, perpetual
      attributes: half, newton on
      pair build: half/bin/atomonly/newton
      stencil: half/bin/3d/newton
      bin: standard
Deleted 1 atoms, new total = 2709
minimize		1e-20 1e-20 1000000 1000000
WARNING: Using 'neigh_modify every 1 delay 0 check yes' setting during minimization (../min.cpp:168)
Neighbor list info ...
  update every 1 steps, delay 0 steps, check yes
  max neighbors/atom: 2000, page size: 100000
  master list distance cutoff = 7.55
  ghost atom cutoff = 7.55
  binsize = 3.775, bins = 67 67 1
  1 neighbor lists, perpetual/occasional/extra = 1 0 0
  (1) pair eam, perpetual
      attributes: half, newton on
      pair build: half/bin/atomonly/newton
      stencil: half/bin/3d/newton
      bin: standard
Per MPI rank memory allocation (min/avg/max) = 1.568 | 5.357 | 6.027 Mbytes
Step Temp E_pair E_mol TotEng Press 
    1764            0   -10550.266            0   -10550.266   -304.90865 
    2221            0    -10551.58            0    -10551.58   -271.31627 
Loop time of 1.27844 on 8 procs for 457 steps with 2709 atoms

98.1% CPU use with 8 MPI tasks x no OpenMP threads

Minimization stats:
  Stopping criterion = energy tolerance
  Energy initial, next-to-last, final = 
        -10550.2659677     -10551.5796273     -10551.5796273
  Force two-norm initial, final = 1.1452 7.165e-07
  Force max component initial, final = 0.491952 1.91032e-07
  Final line search alpha, max atom move = 1 1.91032e-07
  Iterations, force evaluations = 457 897

MPI task timing breakdown:
Section |  min time  |  avg time  |  max time  |%varavg| %total
---------------------------------------------------------------
Pair    | 0.00025487 | 0.71066    | 1.2078     |  45.1 | 55.59
Neigh   | 6.6757e-06 | 0.0011442  | 0.0028195  |   3.2 |  0.09
Comm    | 0.00028753 | 0.34491    | 0.67864    |  45.6 | 26.98
Output  | 0          | 0          | 0          |   0.0 |  0.00
Modify  | 6.0081e-05 | 0.0008063  | 0.001734   |   0.0 |  0.06
Other   |            | 0.2209     |            |       | 17.28

Nlocal:    338.625 ave 793 max 0 min
Histogram: 2 2 0 0 1 0 0 1 0 2
Nghost:    2673.5 ave 6020 max 0 min
Histogram: 2 1 1 0 1 0 0 1 0 2
Neighs:    14358.4 ave 33798 max 0 min
Histogram: 2 2 0 0 1 0 0 1 0 2

Total # of neighbors = 114867
Ave neighs/atom = 42.402
Neighbor list builds = 2
Dangerous builds = 0
next			a
jump			in.relax loopa
variable		a loop 300
displace_atoms	right rotate 79 79 0 0 0 1 -0.1 units box
delete_atoms	overlap 2.65 all all
Neighbor list info ...
  update every 1 steps, delay 10 steps, check yes
  max neighbors/atom: 2000, page size: 100000
  master list distance cutoff = 7.55
  ghost atom cutoff = 7.55
  binsize = 3.775, bins = 67 67 1
  2 neighbor lists, perpetual/occasional/extra = 1 1 0
  (1) command delete_atoms, occasional
      attributes: full, newton on
      pair build: full/bin/atomonly
      stencil: full/bin/3d
      bin: standard
  (2) pair eam, perpetual
      attributes: half, newton on
      pair build: half/bin/atomonly/newton
      stencil: half/bin/3d/newton
      bin: standard
Deleted 0 atoms, new total = 2709
minimize		1e-20 1e-20 1000000 1000000
WARNING: Using 'neigh_modify every 1 delay 0 check yes' setting during minimization (../min.cpp:168)
Neighbor list info ...
  update every 1 steps, delay 0 steps, check yes
  max neighbors/atom: 2000, page size: 100000
  master list distance cutoff = 7.55
  ghost atom cutoff = 7.55
  binsize = 3.775, bins = 67 67 1
  1 neighbor lists, perpetual/occasional/extra = 1 0 0
  (1) pair eam, perpetual
      attributes: half, newton on
      pair build: half/bin/atomonly/newton
      stencil: half/bin/3d/newton
      bin: standard
Per MPI rank memory allocation (min/avg/max) = 1.568 | 5.357 | 6.027 Mbytes
Step Temp E_pair E_mol TotEng Press 
    2221            0   -10551.508            0   -10551.508   -270.52407 
    2475            0   -10551.569            0   -10551.569   -279.35338 
Loop time of 0.753616 on 8 procs for 254 steps with 2709 atoms

98.0% CPU use with 8 MPI tasks x no OpenMP threads

Minimization stats:
  Stopping criterion = energy tolerance
  Energy initial, next-to-last, final = 
        -10551.5084065     -10551.5688716     -10551.5688716
  Force two-norm initial, final = 0.800967 2.4476e-05
  Force max component initial, final = 0.204394 5.54019e-06
  Final line search alpha, max atom move = 1 5.54019e-06
  Iterations, force evaluations = 254 508

MPI task timing breakdown:
Section |  min time  |  avg time  |  max time  |%varavg| %total
---------------------------------------------------------------
Pair    | 0.00012016 | 0.41644    | 0.71224    |  34.7 | 55.26
Neigh   | 0          | 0          | 0          |   0.0 |  0.00
Comm    | 0.00013518 | 0.20391    | 0.40257    |  34.9 | 27.06
Output  | 0          | 0          | 0          |   0.0 |  0.00
Modify  | 3.3617e-05 | 0.00047538 | 0.0010052  |   0.0 |  0.06
Other   |            | 0.1328     |            |       | 17.62

Nlocal:    338.625 ave 792 max 0 min
Histogram: 2 2 0 0 1 0 0 1 0 2
Nghost:    2675.12 ave 6027 max 0 min
Histogram: 2 1 1 0 1 0 0 1 0 2
Neighs:    14348.1 ave 33747 max 0 min
Histogram: 2 2 0 0 1 0 0 1 0 2

Total # of neighbors = 114785
Ave neighs/atom = 42.3717
Neighbor list builds = 0
Dangerous builds = 0
next			a
jump			in.relax loopa
variable		a loop 300
displace_atoms	right rotate 79 79 0 0 0 1 -0.1 units box
delete_atoms	overlap 2.65 all all
Neighbor list info ...
  update every 1 steps, delay 10 steps, check yes
  max neighbors/atom: 2000, page size: 100000
  master list distance cutoff = 7.55
  ghost atom cutoff = 7.55
  binsize = 3.775, bins = 67 67 1
  2 neighbor lists, perpetual/occasional/extra = 1 1 0
  (1) command delete_atoms, occasional
      attributes: full, newton on
      pair build: full/bin/atomonly
      stencil: full/bin/3d
      bin: standard
  (2) pair eam, perpetual
      attributes: half, newton on
      pair build: half/bin/atomonly/newton
      stencil: half/bin/3d/newton
      bin: standard
Deleted 1 atoms, new total = 2708
minimize		1e-20 1e-20 1000000 1000000
WARNING: Using 'neigh_modify every 1 delay 0 check yes' setting during minimization (../min.cpp:168)
Neighbor list info ...
  update every 1 steps, delay 0 steps, check yes
  max neighbors/atom: 2000, page size: 100000
  master list distance cutoff = 7.55
  ghost atom cutoff = 7.55
  binsize = 3.775, bins = 67 67 1
  1 neighbor lists, perpetual/occasional/extra = 1 0 0
  (1) pair eam, perpetual
      attributes: half, newton on
      pair build: half/bin/atomonly/newton
      stencil: half/bin/3d/newton
      bin: standard
Per MPI rank memory allocation (min/avg/max) = 1.568 | 5.357 | 6.027 Mbytes
Step Temp E_pair E_mol TotEng Press 
    2475            0   -10546.312            0   -10546.312   -320.80591 
    2835            0   -10547.625            0   -10547.625   -287.25769 
Loop time of 0.999641 on 8 procs for 360 steps with 2708 atoms

98.0% CPU use with 8 MPI tasks x no OpenMP threads

Minimization stats:
  Stopping criterion = energy tolerance
  Energy initial, next-to-last, final = 
        -10546.3117557     -10547.6249753     -10547.6249753
  Force two-norm initial, final = 1.14479 3.20694e-06
  Force max component initial, final = 0.490236 8.62869e-07
  Final line search alpha, max atom move = 1 8.62869e-07
  Iterations, force evaluations = 360 703

MPI task timing breakdown:
Section |  min time  |  avg time  |  max time  |%varavg| %total
---------------------------------------------------------------
Pair    | 0.00016093 | 0.55647    | 0.94034    |  39.9 | 55.67
Neigh   | 7.391e-06  | 0.0011526  | 0.0027666  |   3.1 |  0.12
Comm    | 0.00024605 | 0.26824    | 0.52822    |  40.9 | 26.83
Output  | 0          | 0          | 0          |   0.0 |  0.00
Modify  | 4.8637e-05 | 0.00064549 | 0.0013771  |   0.0 |  0.06
Other   |            | 0.1731     |            |       | 17.32

Nlocal:    338.5 ave 794 max 0 min
Histogram: 2 2 0 0 1 0 0 1 0 2
Nghost:    2675.25 ave 6025 max 0 min
Histogram: 2 1 1 0 1 0 0 1 0 2
Neighs:    14352.1 ave 33841 max 0 min
Histogram: 2 2 0 0 1 0 0 1 0 2

Total # of neighbors = 114817
Ave neighs/atom = 42.3992
Neighbor list builds = 2
Dangerous builds = 0
next			a
jump			in.relax loopa
variable		a loop 300
displace_atoms	right rotate 79 79 0 0 0 1 -0.1 units box
delete_atoms	overlap 2.65 all all
Neighbor list info ...
  update every 1 steps, delay 10 steps, check yes
  max neighbors/atom: 2000, page size: 100000
  master list distance cutoff = 7.55
  ghost atom cutoff = 7.55
  binsize = 3.775, bins = 67 67 1
  2 neighbor lists, perpetual/occasional/extra = 1 1 0
  (1) command delete_atoms, occasional
      attributes: full, newton on
      pair build: full/bin/atomonly
      stencil: full/bin/3d
      bin: standard
  (2) pair eam, perpetual
      attributes: half, newton on
      pair build: half/bin/atomonly/newton
      stencil: half/bin/3d/newton
      bin: standard
Deleted 0 atoms, new total = 2708
minimize		1e-20 1e-20 1000000 1000000
WARNING: Using 'neigh_modify every 1 delay 0 check yes' setting during minimization (../min.cpp:168)
Neighbor list info ...
  update every 1 steps, delay 0 steps, check yes
  max neighbors/atom: 2000, page size: 100000
  master list distance cutoff = 7.55
  ghost atom cutoff = 7.55
  binsize = 3.775, bins = 67 67 1
  1 neighbor lists, perpetual/occasional/extra = 1 0 0
  (1) pair eam, perpetual
      attributes: half, newton on
      pair build: half/bin/atomonly/newton
      stencil: half/bin/3d/newton
      bin: standard
Per MPI rank memory allocation (min/avg/max) = 1.568 | 5.357 | 6.027 Mbytes
Step Temp E_pair E_mol TotEng Press 
    2835            0   -10547.548            0   -10547.548     -286.164 
    3169            0   -10547.608            0   -10547.608   -294.85565 
Loop time of 0.958634 on 8 procs for 334 steps with 2708 atoms

97.9% CPU use with 8 MPI tasks x no OpenMP threads

Minimization stats:
  Stopping criterion = energy tolerance
  Energy initial, next-to-last, final = 
         -10547.547794     -10547.6081418     -10547.6081418
  Force two-norm initial, final = 0.800681 2.25417e-06
  Force max component initial, final = 0.205947 5.51918e-07
  Final line search alpha, max atom move = 1 5.51918e-07
  Iterations, force evaluations = 334 668

MPI task timing breakdown:
Section |  min time  |  avg time  |  max time  |%varavg| %total
---------------------------------------------------------------
Pair    | 0.00017381 | 0.53248    | 0.90565    |  39.0 | 55.55
Neigh   | 0          | 0          | 0          |   0.0 |  0.00
Comm    | 0.00017834 | 0.25804    | 0.50882    |  39.3 | 26.92
Output  | 0          | 0          | 0          |   0.0 |  0.00
Modify  | 5.2691e-05 | 0.00060233 | 0.0012965  |   0.0 |  0.06
Other   |            | 0.1675     |            |       | 17.47

Nlocal:    338.5 ave 794 max 0 min
Histogram: 2 2 0 0 1 0 0 1 0 2
Nghost:    2675.25 ave 6031 max 0 min
Histogram: 2 1 1 0 1 0 0 1 0 2
Neighs:    14340.9 ave 33855 max 0 min
Histogram: 2 2 0 0 1 0 0 1 0 2

Total # of neighbors = 114727
Ave neighs/atom = 42.366
Neighbor list builds = 0
Dangerous builds = 0
next			a
jump			in.relax loopa
variable		a loop 300
displace_atoms	right rotate 79 79 0 0 0 1 -0.1 units box
delete_atoms	overlap 2.65 all all
Neighbor list info ...
  update every 1 steps, delay 10 steps, check yes
  max neighbors/atom: 2000, page size: 100000
  master list distance cutoff = 7.55
  ghost atom cutoff = 7.55
  binsize = 3.775, bins = 67 67 1
  2 neighbor lists, perpetual/occasional/extra = 1 1 0
  (1) command delete_atoms, occasional
      attributes: full, newton on
      pair build: full/bin/atomonly
      stencil: full/bin/3d
      bin: standard
  (2) pair eam, perpetual
      attributes: half, newton on
      pair build: half/bin/atomonly/newton
      stencil: half/bin/3d/newton
      bin: standard
Deleted 0 atoms, new total = 2708
minimize		1e-20 1e-20 1000000 1000000
WARNING: Using 'neigh_modify every 1 delay 0 check yes' setting during minimization (../min.cpp:168)
Neighbor list info ...
  update every 1 steps, delay 0 steps, check yes
  max neighbors/atom: 2000, page size: 100000
  master list distance cutoff = 7.55
  ghost atom cutoff = 7.55
  binsize = 3.775, bins = 67 67 1
  1 neighbor lists, perpetual/occasional/extra = 1 0 0
  (1) pair eam, perpetual
      attributes: half, newton on
      pair build: half/bin/atomonly/newton
      stencil: half/bin/3d/newton
      bin: standard
Per MPI rank memory allocation (min/avg/max) = 1.568 | 5.357 | 6.027 Mbytes
Step Temp E_pair E_mol TotEng Press 
    3169            0   -10547.528            0   -10547.528   -293.59846 
    3510            0   -10547.588            0   -10547.588   -302.09086 
Loop time of 0.974532 on 8 procs for 341 steps with 2708 atoms

98.3% CPU use with 8 MPI tasks x no OpenMP threads

Minimization stats:
  Stopping criterion = energy tolerance
  Energy initial, next-to-last, final = 
        -10547.5279646     -10547.5882891     -10547.5882891
  Force two-norm initial, final = 0.80066 1.64494e-06
  Force max component initial, final = 0.206751 3.32728e-07
  Final line search alpha, max atom move = 1 3.32728e-07
  Iterations, force evaluations = 341 682

MPI task timing breakdown:
Section |  min time  |  avg time  |  max time  |%varavg| %total
---------------------------------------------------------------
Pair    | 0.00015283 | 0.54536    | 0.92092    |  39.4 | 55.96
Neigh   | 0          | 0          | 0          |   0.0 |  0.00
Comm    | 0.00014782 | 0.26143    | 0.51927    |  39.9 | 26.83
Output  | 0          | 0          | 0          |   0.0 |  0.00
Modify  | 4.5776e-05 | 0.0006271  | 0.0013535  |   0.0 |  0.06
Other   |            | 0.1671     |            |       | 17.15

Nlocal:    338.5 ave 795 max 0 min
Histogram: 2 2 0 0 1 0 0 1 0 2
Nghost:    2678.25 ave 6036 max 0 min
Histogram: 2 1 1 0 1 0 0 1 0 2
Neighs:    14341.5 ave 33897 max 0 min
Histogram: 2 2 0 0 1 0 0 1 0 2

Total # of neighbors = 114732
Ave neighs/atom = 42.3678
Neighbor list builds = 0
Dangerous builds = 0
next			a
jump			in.relax loopa
variable		a loop 300
displace_atoms	right rotate 79 79 0 0 0 1 -0.1 units box
delete_atoms	overlap 2.65 all all
Neighbor list info ...
  update every 1 steps, delay 10 steps, check yes
  max neighbors/atom: 2000, page size: 100000
  master list distance cutoff = 7.55
  ghost atom cutoff = 7.55
  binsize = 3.775, bins = 67 67 1
  2 neighbor lists, perpetual/occasional/extra = 1 1 0
  (1) command delete_atoms, occasional
      attributes: full, newton on
      pair build: full/bin/atomonly
      stencil: full/bin/3d
      bin: standard
  (2) pair eam, perpetual
      attributes: half, newton on
      pair build: half/bin/atomonly/newton
      stencil: half/bin/3d/newton
      bin: standard
Deleted 0 atoms, new total = 2708
minimize		1e-20 1e-20 1000000 1000000
WARNING: Using 'neigh_modify every 1 delay 0 check yes' setting during minimization (../min.cpp:168)
Neighbor list info ...
  update every 1 steps, delay 0 steps, check yes
  max neighbors/atom: 2000, page size: 100000
  master list distance cutoff = 7.55
  ghost atom cutoff = 7.55
  binsize = 3.775, bins = 67 67 1
  1 neighbor lists, perpetual/occasional/extra = 1 0 0
  (1) pair eam, perpetual
      attributes: half, newton on
      pair build: half/bin/atomonly/newton
      stencil: half/bin/3d/newton
      bin: standard
Per MPI rank memory allocation (min/avg/max) = 1.568 | 5.357 | 6.027 Mbytes
Step Temp E_pair E_mol TotEng Press 
    3510            0   -10547.505            0   -10547.505   -300.70583 
    3782            0   -10547.565            0   -10547.565   -309.44212 
Loop time of 0.779683 on 8 procs for 272 steps with 2708 atoms

97.9% CPU use with 8 MPI tasks x no OpenMP threads

Minimization stats:
  Stopping criterion = energy tolerance
  Energy initial, next-to-last, final = 
        -10547.5050571     -10547.5654161     -10547.5654161
  Force two-norm initial, final = 0.800644 1.68634e-05
  Force max component initial, final = 0.207572 3.84899e-06
  Final line search alpha, max atom move = 1 3.84899e-06
  Iterations, force evaluations = 272 544

MPI task timing breakdown:
Section |  min time  |  avg time  |  max time  |%varavg| %total
---------------------------------------------------------------
Pair    | 0.00013137 | 0.4339     | 0.73856    |  35.5 | 55.65
Neigh   | 0          | 0          | 0          |   0.0 |  0.00
Comm    | 0.00012016 | 0.21123    | 0.41899    |  36.0 | 27.09
Output  | 0          | 0          | 0          |   0.0 |  0.00
Modify  | 2.7895e-05 | 0.00049531 | 0.0010941  |   0.0 |  0.06
Other   |            | 0.1341     |            |       | 17.19

Nlocal:    338.5 ave 796 max 0 min
Histogram: 2 2 0 0 1 0 0 1 0 2
Nghost:    2678 ave 6041 max 0 min
Histogram: 2 1 1 0 1 0 0 1 0 2
Neighs:    14342.9 ave 33928 max 0 min
Histogram: 2 2 0 0 1 0 0 1 0 2

Total # of neighbors = 114743
Ave neighs/atom = 42.3719
Neighbor list builds = 0
Dangerous builds = 0
next			a
jump			in.relax loopa
variable		a loop 300
displace_atoms	right rotate 79 79 0 0 0 1 -0.1 units box
delete_atoms	overlap 2.65 all all
Neighbor list info ...
  update every 1 steps, delay 10 steps, check yes
  max neighbors/atom: 2000, page size: 100000
  master list distance cutoff = 7.55
  ghost atom cutoff = 7.55
  binsize = 3.775, bins = 67 67 1
  2 neighbor lists, perpetual/occasional/extra = 1 1 0
  (1) command delete_atoms, occasional
      attributes: full, newton on
      pair build: full/bin/atomonly
      stencil: full/bin/3d
      bin: standard
  (2) pair eam, perpetual
      attributes: half, newton on
      pair build: half/bin/atomonly/newton
      stencil: half/bin/3d/newton
      bin: standard
Deleted 0 atoms, new total = 2708
minimize		1e-20 1e-20 1000000 1000000
WARNING: Using 'neigh_modify every 1 delay 0 check yes' setting during minimization (../min.cpp:168)
Neighbor list info ...
  update every 1 steps, delay 0 steps, check yes
  max neighbors/atom: 2000, page size: 100000
  master list distance cutoff = 7.55
  ghost atom cutoff = 7.55
  binsize = 3.775, bins = 67 67 1
  1 neighbor lists, perpetual/occasional/extra = 1 0 0
  (1) pair eam, perpetual
      attributes: half, newton on
      pair build: half/bin/atomonly/newton
      stencil: half/bin/3d/newton
      bin: standard
Per MPI rank memory allocation (min/avg/max) = 1.568 | 5.357 | 6.027 Mbytes
Step Temp E_pair E_mol TotEng Press 
    3782            0   -10547.479            0   -10547.479   -307.88064 
    4070            0    -10547.54            0    -10547.54   -316.65051 
Loop time of 0.834123 on 8 procs for 288 steps with 2708 atoms

98.3% CPU use with 8 MPI tasks x no OpenMP threads

Minimization stats:
  Stopping criterion = energy tolerance
  Energy initial, next-to-last, final = 
        -10547.4791952     -10547.5395147     -10547.5395147
  Force two-norm initial, final = 0.800255 9.42581e-06
  Force max component initial, final = 0.208406 1.64371e-06
  Final line search alpha, max atom move = 1 1.64371e-06
  Iterations, force evaluations = 288 576

MPI task timing breakdown:
Section |  min time  |  avg time  |  max time  |%varavg| %total
---------------------------------------------------------------
Pair    | 0.0001471  | 0.45949    | 0.78813    |  36.4 | 55.09
Neigh   | 0          | 0          | 0          |   0.0 |  0.00
Comm    | 0.00015116 | 0.22685    | 0.44945    |  36.3 | 27.20
Output  | 0          | 0          | 0          |   0.0 |  0.00
Modify  | 3.8862e-05 | 0.00052288 | 0.001137   |   0.0 |  0.06
Other   |            | 0.1473     |            |       | 17.65

Nlocal:    338.5 ave 795 max 0 min
Histogram: 2 2 0 0 1 0 0 1 0 2
Nghost:    2681 ave 6049 max 0 min
Histogram: 2 1 1 0 1 0 0 1 0 2
Neighs:    14343.9 ave 33896 max 0 min
Histogram: 2 2 0 0 1 0 0 1 0 2

Total # of neighbors = 114751
Ave neighs/atom = 42.3748
Neighbor list builds = 0
Dangerous builds = 0
next			a
jump			in.relax loopa
variable		a loop 300
displace_atoms	right rotate 79 79 0 0 0 1 -0.1 units box
delete_atoms	overlap 2.65 all all
Neighbor list info ...
  update every 1 steps, delay 10 steps, check yes
  max neighbors/atom: 2000, page size: 100000
  master list distance cutoff = 7.55
  ghost atom cutoff = 7.55
  binsize = 3.775, bins = 67 67 1
  2 neighbor lists, perpetual/occasional/extra = 1 1 0
  (1) command delete_atoms, occasional
      attributes: full, newton on
      pair build: full/bin/atomonly
      stencil: full/bin/3d
      bin: standard
  (2) pair eam, perpetual
      attributes: half, newton on
      pair build: half/bin/atomonly/newton
      stencil: half/bin/3d/newton
      bin: standard
Deleted 0 atoms, new total = 2708
minimize		1e-20 1e-20 1000000 1000000
WARNING: Using 'neigh_modify every 1 delay 0 check yes' setting during minimization (../min.cpp:168)
Neighbor list info ...
  update every 1 steps, delay 0 steps, check yes
  max neighbors/atom: 2000, page size: 100000
  master list distance cutoff = 7.55
  ghost atom cutoff = 7.55
  binsize = 3.775, bins = 67 67 1
  1 neighbor lists, perpetual/occasional/extra = 1 0 0
  (1) pair eam, perpetual
      attributes: half, newton on
      pair build: half/bin/atomonly/newton
      stencil: half/bin/3d/newton
      bin: standard
Per MPI rank memory allocation (min/avg/max) = 1.568 | 5.357 | 6.027 Mbytes
Step Temp E_pair E_mol TotEng Press 
    4070            0    -10547.45            0    -10547.45   -314.93038 
    4356            0   -10547.511            0   -10547.511   -323.81189 
Loop time of 0.816189 on 8 procs for 286 steps with 2708 atoms

98.0% CPU use with 8 MPI tasks x no OpenMP threads

Minimization stats:
  Stopping criterion = energy tolerance
  Energy initial, next-to-last, final = 
        -10547.4503143     -10547.5105918     -10547.5105918
  Force two-norm initial, final = 0.800322 9.91156e-06
  Force max component initial, final = 0.209209 1.7946e-06
  Final line search alpha, max atom move = 1 1.7946e-06
  Iterations, force evaluations = 286 572

MPI task timing breakdown:
Section |  min time  |  avg time  |  max time  |%varavg| %total
---------------------------------------------------------------
Pair    | 0.0001533  | 0.45263    | 0.77132    |  36.2 | 55.46
Neigh   | 0          | 0          | 0          |   0.0 |  0.00
Comm    | 0.00017095 | 0.22048    | 0.43843    |  36.6 | 27.01
Output  | 0          | 0          | 0          |   0.0 |  0.00
Modify  | 4.077e-05  | 0.00050709 | 0.0010853  |   0.0 |  0.06
Other   |            | 0.1426     |            |       | 17.47

Nlocal:    338.5 ave 795 max 0 min
Histogram: 2 2 0 0 1 0 0 1 0 2
Nghost:    2679.5 ave 6042 max 0 min
Histogram: 2 1 1 0 1 0 0 1 0 2
Neighs:    14345.9 ave 33906 max 0 min
Histogram: 2 2 0 0 1 0 0 1 0 2

Total # of neighbors = 114767
Ave neighs/atom = 42.3807
Neighbor list builds = 0
Dangerous builds = 0
next			a
jump			in.relax loopa
variable		a loop 300
displace_atoms	right rotate 79 79 0 0 0 1 -0.1 units box
delete_atoms	overlap 2.65 all all
Neighbor list info ...
  update every 1 steps, delay 10 steps, check yes
  max neighbors/atom: 2000, page size: 100000
  master list distance cutoff = 7.55
  ghost atom cutoff = 7.55
  binsize = 3.775, bins = 67 67 1
  2 neighbor lists, perpetual/occasional/extra = 1 1 0
  (1) command delete_atoms, occasional
      attributes: full, newton on
      pair build: full/bin/atomonly
      stencil: full/bin/3d
      bin: standard
  (2) pair eam, perpetual
      attributes: half, newton on
      pair build: half/bin/atomonly/newton
      stencil: half/bin/3d/newton
      bin: standard
Deleted 0 atoms, new total = 2708
minimize		1e-20 1e-20 1000000 1000000
WARNING: Using 'neigh_modify every 1 delay 0 check yes' setting during minimization (../min.cpp:168)
Neighbor list info ...
  update every 1 steps, delay 0 steps, check yes
  max neighbors/atom: 2000, page size: 100000
  master list distance cutoff = 7.55
  ghost atom cutoff = 7.55
  binsize = 3.775, bins = 67 67 1
  1 neighbor lists, perpetual/occasional/extra = 1 0 0
  (1) pair eam, perpetual
      attributes: half, newton on
      pair build: half/bin/atomonly/newton
      stencil: half/bin/3d/newton
      bin: standard
Per MPI rank memory allocation (min/avg/max) = 1.568 | 5.357 | 6.027 Mbytes
Step Temp E_pair E_mol TotEng Press 
    4356            0   -10547.418            0   -10547.418   -321.92346 
    4845            0   -10547.479            0   -10547.479   -330.82791 
Loop time of 1.41138 on 8 procs for 489 steps with 2708 atoms

98.4% CPU use with 8 MPI tasks x no OpenMP threads

Minimization stats:
  Stopping criterion = energy tolerance
  Energy initial, next-to-last, final = 
        -10547.4184138     -10547.4786492     -10547.4786492
  Force two-norm initial, final = 0.80043 5.40328e-08
  Force max component initial, final = 0.21001 1.66837e-08
  Final line search alpha, max atom move = 1 1.66837e-08
  Iterations, force evaluations = 489 978

MPI task timing breakdown:
Section |  min time  |  avg time  |  max time  |%varavg| %total
---------------------------------------------------------------
Pair    | 0.00025845 | 0.78082    | 1.3346     |  47.4 | 55.32
Neigh   | 0          | 0          | 0          |   0.0 |  0.00
Comm    | 0.00028777 | 0.38156    | 0.75809    |  47.5 | 27.03
Output  | 0          | 0          | 0          |   0.0 |  0.00
Modify  | 7.534e-05  | 0.00088322 | 0.0019448  |   0.0 |  0.06
Other   |            | 0.2481     |            |       | 17.58

Nlocal:    338.5 ave 797 max 0 min
Histogram: 2 2 0 0 1 0 0 1 0 2
Nghost:    2680.12 ave 6046 max 0 min
Histogram: 2 1 1 0 1 0 0 1 0 2
Neighs:    14347 ave 33997 max 0 min
Histogram: 2 2 0 0 1 0 0 1 0 2

Total # of neighbors = 114776
Ave neighs/atom = 42.384
Neighbor list builds = 0
Dangerous builds = 0
next			a
jump			in.relax loopa
variable		a loop 300
displace_atoms	right rotate 79 79 0 0 0 1 -0.1 units box
delete_atoms	overlap 2.65 all all
Neighbor list info ...
  update every 1 steps, delay 10 steps, check yes
  max neighbors/atom: 2000, page size: 100000
  master list distance cutoff = 7.55
  ghost atom cutoff = 7.55
  binsize = 3.775, bins = 67 67 1
  2 neighbor lists, perpetual/occasional/extra = 1 1 0
  (1) command delete_atoms, occasional
      attributes: full, newton on
      pair build: full/bin/atomonly
      stencil: full/bin/3d
      bin: standard
  (2) pair eam, perpetual
      attributes: half, newton on
      pair build: half/bin/atomonly/newton
      stencil: half/bin/3d/newton
      bin: standard
Deleted 0 atoms, new total = 2708
minimize		1e-20 1e-20 1000000 1000000
WARNING: Using 'neigh_modify every 1 delay 0 check yes' setting during minimization (../min.cpp:168)
Neighbor list info ...
  update every 1 steps, delay 0 steps, check yes
  max neighbors/atom: 2000, page size: 100000
  master list distance cutoff = 7.55
  ghost atom cutoff = 7.55
  binsize = 3.775, bins = 67 67 1
  1 neighbor lists, perpetual/occasional/extra = 1 0 0
  (1) pair eam, perpetual
      attributes: half, newton on
      pair build: half/bin/atomonly/newton
      stencil: half/bin/3d/newton
      bin: standard
Per MPI rank memory allocation (min/avg/max) = 1.568 | 5.357 | 6.027 Mbytes
Step Temp E_pair E_mol TotEng Press 
    4845            0   -10547.383            0   -10547.383   -328.76137 
    5181            0   -10547.444            0   -10547.444   -337.78031 
Loop time of 1.01846 on 8 procs for 336 steps with 2708 atoms

97.5% CPU use with 8 MPI tasks x no OpenMP threads

Minimization stats:
  Stopping criterion = energy tolerance
  Energy initial, next-to-last, final = 
        -10547.3834951     -10547.4436896     -10547.4436896
  Force two-norm initial, final = 0.80057 1.75805e-06
  Force max component initial, final = 0.210809 3.63202e-07
  Final line search alpha, max atom move = 1 3.63202e-07
  Iterations, force evaluations = 336 672

MPI task timing breakdown:
Section |  min time  |  avg time  |  max time  |%varavg| %total
---------------------------------------------------------------
Pair    | 0.0002079  | 0.55804    | 0.96537    |  39.8 | 54.79
Neigh   | 0          | 0          | 0          |   0.0 |  0.00
Comm    | 0.00021863 | 0.22156    | 0.54898    |  44.6 | 21.75
Output  | 0          | 0          | 0          |   0.0 |  0.00
Modify  | 5.4836e-05 | 0.00061697 | 0.001363   |   0.0 |  0.06
Other   |            | 0.2382     |            |       | 23.39

Nlocal:    338.5 ave 797 max 0 min
Histogram: 2 2 0 0 1 0 0 1 0 2
Nghost:    2679.25 ave 6040 max 0 min
Histogram: 2 1 1 0 1 0 0 1 0 2
Neighs:    14348 ave 33986 max 0 min
Histogram: 2 2 0 0 1 0 0 1 0 2

Total # of neighbors = 114784
Ave neighs/atom = 42.387
Neighbor list builds = 0
Dangerous builds = 0
next			a
jump			in.relax loopa
variable		a loop 300
displace_atoms	right rotate 79 79 0 0 0 1 -0.1 units box
delete_atoms	overlap 2.65 all all
Neighbor list info ...
  update every 1 steps, delay 10 steps, check yes
  max neighbors/atom: 2000, page size: 100000
  master list distance cutoff = 7.55
  ghost atom cutoff = 7.55
  binsize = 3.775, bins = 67 67 1
  2 neighbor lists, perpetual/occasional/extra = 1 1 0
  (1) command delete_atoms, occasional
      attributes: full, newton on
      pair build: full/bin/atomonly
      stencil: full/bin/3d
      bin: standard
  (2) pair eam, perpetual
      attributes: half, newton on
      pair build: half/bin/atomonly/newton
      stencil: half/bin/3d/newton
      bin: standard
Deleted 0 atoms, new total = 2708
minimize		1e-20 1e-20 1000000 1000000
WARNING: Using 'neigh_modify every 1 delay 0 check yes' setting during minimization (../min.cpp:168)
Neighbor list info ...
  update every 1 steps, delay 0 steps, check yes
  max neighbors/atom: 2000, page size: 100000
  master list distance cutoff = 7.55
  ghost atom cutoff = 7.55
  binsize = 3.775, bins = 67 67 1
  1 neighbor lists, perpetual/occasional/extra = 1 0 0
  (1) pair eam, perpetual
      attributes: half, newton on
      pair build: half/bin/atomonly/newton
      stencil: half/bin/3d/newton
      bin: standard
Per MPI rank memory allocation (min/avg/max) = 1.568 | 5.357 | 6.027 Mbytes
Step Temp E_pair E_mol TotEng Press 
    5181            0   -10547.346            0   -10547.346   -335.52259 
    5669            0   -10547.406            0   -10547.406   -344.60679 
Loop time of 1.42368 on 8 procs for 488 steps with 2708 atoms

98.2% CPU use with 8 MPI tasks x no OpenMP threads

Minimization stats:
  Stopping criterion = energy tolerance
  Energy initial, next-to-last, final = 
        -10547.3455134     -10547.4057218     -10547.4057218
  Force two-norm initial, final = 0.801026 9.20007e-07
  Force max component initial, final = 0.212904 1.80662e-07
  Final line search alpha, max atom move = 1 1.80662e-07
  Iterations, force evaluations = 488 976

MPI task timing breakdown:
Section |  min time  |  avg time  |  max time  |%varavg| %total
---------------------------------------------------------------
Pair    | 0.00025225 | 0.78712    | 1.3497     |  47.6 | 55.29
Neigh   | 0          | 0          | 0          |   0.0 |  0.00
Comm    | 0.00027943 | 0.30746    | 0.77048    |  54.4 | 21.60
Output  | 0          | 0          | 0          |   0.0 |  0.00
Modify  | 6.3896e-05 | 0.00088227 | 0.0019054  |   0.0 |  0.06
Other   |            | 0.3282     |            |       | 23.05

Nlocal:    338.5 ave 796 max 0 min
Histogram: 2 2 0 0 1 0 0 1 0 2
Nghost:    2679.38 ave 6048 max 0 min
Histogram: 2 1 1 0 1 0 0 1 0 2
Neighs:    14350.9 ave 33943 max 0 min
Histogram: 2 2 0 0 1 0 0 1 0 2

Total # of neighbors = 114807
Ave neighs/atom = 42.3955
Neighbor list builds = 0
Dangerous builds = 0
next			a
jump			in.relax loopa
variable		a loop 300
displace_atoms	right rotate 79 79 0 0 0 1 -0.1 units box
delete_atoms	overlap 2.65 all all
Neighbor list info ...
  update every 1 steps, delay 10 steps, check yes
  max neighbors/atom: 2000, page size: 100000
  master list distance cutoff = 7.55
  ghost atom cutoff = 7.55
  binsize = 3.775, bins = 67 67 1
  2 neighbor lists, perpetual/occasional/extra = 1 1 0
  (1) command delete_atoms, occasional
      attributes: full, newton on
      pair build: full/bin/atomonly
      stencil: full/bin/3d
      bin: standard
  (2) pair eam, perpetual
      attributes: half, newton on
      pair build: half/bin/atomonly/newton
      stencil: half/bin/3d/newton
      bin: standard
Deleted 1 atoms, new total = 2707
minimize		1e-20 1e-20 1000000 1000000
WARNING: Using 'neigh_modify every 1 delay 0 check yes' setting during minimization (../min.cpp:168)
Neighbor list info ...
  update every 1 steps, delay 0 steps, check yes
  max neighbors/atom: 2000, page size: 100000
  master list distance cutoff = 7.55
  ghost atom cutoff = 7.55
  binsize = 3.775, bins = 67 67 1
  1 neighbor lists, perpetual/occasional/extra = 1 0 0
  (1) pair eam, perpetual
      attributes: half, newton on
      pair build: half/bin/atomonly/newton
      stencil: half/bin/3d/newton
      bin: standard
Per MPI rank memory allocation (min/avg/max) = 1.568 | 5.357 | 6.027 Mbytes
Step Temp E_pair E_mol TotEng Press 
    5669            0   -10542.582            0   -10542.582   -399.34948 
    6290            0   -10543.599            0   -10543.599    -351.0783 
Loop time of 1.88019 on 8 procs for 621 steps with 2707 atoms

98.0% CPU use with 8 MPI tasks x no OpenMP threads

Minimization stats:
  Stopping criterion = energy tolerance
  Energy initial, next-to-last, final = 
        -10542.5824458      -10543.598529      -10543.598529
  Force two-norm initial, final = 1.17112 7.36269e-06
  Force max component initial, final = 0.467175 2.39824e-06
  Final line search alpha, max atom move = 1 2.39824e-06
  Iterations, force evaluations = 621 1236

MPI task timing breakdown:
Section |  min time  |  avg time  |  max time  |%varavg| %total
---------------------------------------------------------------
Pair    | 0.00034332 | 1.0334     | 1.7813     |  54.2 | 54.96
Neigh   | 3.8147e-06 | 0.0005731  | 0.0013428  |   0.0 |  0.03
Comm    | 0.00039601 | 0.40742    | 1.0138     |  61.2 | 21.67
Output  | 0          | 0          | 0          |   0.0 |  0.00
Modify  | 8.44e-05   | 0.0011482  | 0.0025833  |   2.8 |  0.06
Other   |            | 0.4376     |            |       | 23.28

Nlocal:    338.375 ave 796 max 0 min
Histogram: 2 2 0 0 1 0 0 1 0 2
Nghost:    2676.62 ave 6040 max 0 min
Histogram: 2 1 1 0 1 0 0 1 0 2
Neighs:    14336.9 ave 33959 max 0 min
Histogram: 2 2 0 0 1 0 0 1 0 2

Total # of neighbors = 114695
Ave neighs/atom = 42.3698
Neighbor list builds = 1
Dangerous builds = 0
next			a
jump			in.relax loopa
variable		a loop 300
displace_atoms	right rotate 79 79 0 0 0 1 -0.1 units box
delete_atoms	overlap 2.65 all all
Neighbor list info ...
  update every 1 steps, delay 10 steps, check yes
  max neighbors/atom: 2000, page size: 100000
  master list distance cutoff = 7.55
  ghost atom cutoff = 7.55
  binsize = 3.775, bins = 67 67 1
  2 neighbor lists, perpetual/occasional/extra = 1 1 0
  (1) command delete_atoms, occasional
      attributes: full, newton on
      pair build: full/bin/atomonly
      stencil: full/bin/3d
      bin: standard
  (2) pair eam, perpetual
      attributes: half, newton on
      pair build: half/bin/atomonly/newton
      stencil: half/bin/3d/newton
      bin: standard
Deleted 1 atoms, new total = 2706
minimize		1e-20 1e-20 1000000 1000000
WARNING: Using 'neigh_modify every 1 delay 0 check yes' setting during minimization (../min.cpp:168)
Neighbor list info ...
  update every 1 steps, delay 0 steps, check yes
  max neighbors/atom: 2000, page size: 100000
  master list distance cutoff = 7.55
  ghost atom cutoff = 7.55
  binsize = 3.775, bins = 67 67 1
  1 neighbor lists, perpetual/occasional/extra = 1 0 0
  (1) pair eam, perpetual
      attributes: half, newton on
      pair build: half/bin/atomonly/newton
      stencil: half/bin/3d/newton
      bin: standard
Per MPI rank memory allocation (min/avg/max) = 1.568 | 5.357 | 6.027 Mbytes
Step Temp E_pair E_mol TotEng Press 
    6290            0   -10538.647            0   -10538.647   -395.59715 
    7077            0   -10540.468            0   -10540.468   -533.58644 
Loop time of 2.25007 on 8 procs for 787 steps with 2706 atoms

97.8% CPU use with 8 MPI tasks x no OpenMP threads

Minimization stats:
  Stopping criterion = energy tolerance
  Energy initial, next-to-last, final = 
        -10538.6472299     -10540.4677021     -10540.4677021
  Force two-norm initial, final = 1.07151 8.49905e-07
  Force max component initial, final = 0.370394 2.41127e-07
  Final line search alpha, max atom move = 1 2.41127e-07
  Iterations, force evaluations = 787 1550

MPI task timing breakdown:
Section |  min time  |  avg time  |  max time  |%varavg| %total
---------------------------------------------------------------
Pair    | 0.00036597 | 1.252      | 2.1256     |  59.9 | 55.64
Neigh   | 2.7418e-05 | 0.0029157  | 0.0070672  |   5.0 |  0.13
Comm    | 0.00041056 | 0.47918    | 1.216      |  69.2 | 21.30
Output  | 0          | 0          | 0          |   0.0 |  0.00
Modify  | 0.00012851 | 0.001407   | 0.0029643  |   3.0 |  0.06
Other   |            | 0.5145     |            |       | 22.87

Nlocal:    338.25 ave 798 max 0 min
Histogram: 2 2 0 0 1 0 0 1 0 2
Nghost:    2658.5 ave 6020 max 0 min
Histogram: 2 1 1 0 1 0 0 1 0 2
Neighs:    14354.1 ave 33925 max 0 min
Histogram: 2 2 0 0 1 0 0 1 0 2

Total # of neighbors = 114833
Ave neighs/atom = 42.4364
Neighbor list builds = 5
Dangerous builds = 0
next			a
jump			in.relax loopa
variable		a loop 300
displace_atoms	right rotate 79 79 0 0 0 1 -0.1 units box
delete_atoms	overlap 2.65 all all
Neighbor list info ...
  update every 1 steps, delay 10 steps, check yes
  max neighbors/atom: 2000, page size: 100000
  master list distance cutoff = 7.55
  ghost atom cutoff = 7.55
  binsize = 3.775, bins = 67 67 1
  2 neighbor lists, perpetual/occasional/extra = 1 1 0
  (1) command delete_atoms, occasional
      attributes: full, newton on
      pair build: full/bin/atomonly
      stencil: full/bin/3d
      bin: standard
  (2) pair eam, perpetual
      attributes: half, newton on
      pair build: half/bin/atomonly/newton
      stencil: half/bin/3d/newton
      bin: standard
Deleted 3 atoms, new total = 2703
minimize		1e-20 1e-20 1000000 1000000
WARNING: Using 'neigh_modify every 1 delay 0 check yes' setting during minimization (../min.cpp:168)
Neighbor list info ...
  update every 1 steps, delay 0 steps, check yes
  max neighbors/atom: 2000, page size: 100000
  master list distance cutoff = 7.55
  ghost atom cutoff = 7.55
  binsize = 3.775, bins = 67 67 1
  1 neighbor lists, perpetual/occasional/extra = 1 0 0
  (1) pair eam, perpetual
      attributes: half, newton on
      pair build: half/bin/atomonly/newton
      stencil: half/bin/3d/newton
      bin: standard
Per MPI rank memory allocation (min/avg/max) = 1.568 | 5.357 | 6.027 Mbytes
Step Temp E_pair E_mol TotEng Press 
    7077            0   -10526.509            0   -10526.509   -650.37904 
    7787            0   -10528.818            0   -10528.818    -617.5884 
Loop time of 2.10088 on 8 procs for 710 steps with 2703 atoms

97.8% CPU use with 8 MPI tasks x no OpenMP threads

Minimization stats:
  Stopping criterion = energy tolerance
  Energy initial, next-to-last, final = 
        -10526.5091368     -10528.8175088     -10528.8175088
  Force two-norm initial, final = 1.69076 2.5358e-08
  Force max component initial, final = 0.495177 6.69654e-09
  Final line search alpha, max atom move = 1 6.69654e-09
  Iterations, force evaluations = 710 1400

MPI task timing breakdown:
Section |  min time  |  avg time  |  max time  |%varavg| %total
---------------------------------------------------------------
Pair    | 0.00039005 | 1.1604     | 1.9781     |  57.6 | 55.23
Neigh   | 1.2159e-05 | 0.0012251  | 0.0029714  |   3.1 |  0.06
Comm    | 0.00052023 | 0.44859    | 1.1273     |  65.5 | 21.35
Output  | 0          | 0          | 0          |   0.0 |  0.00
Modify  | 0.00011492 | 0.0013204  | 0.0027719  |   2.9 |  0.06
Other   |            | 0.4893     |            |       | 23.29

Nlocal:    337.875 ave 797 max 0 min
Histogram: 2 2 0 0 1 0 0 1 0 2
Nghost:    2659.5 ave 6021 max 0 min
Histogram: 2 1 1 0 1 0 0 1 0 2
Neighs:    14294.9 ave 33956 max 0 min
Histogram: 2 2 0 0 1 0 0 1 0 2

Total # of neighbors = 114359
Ave neighs/atom = 42.3082
Neighbor list builds = 2
Dangerous builds = 0
next			a
jump			in.relax loopa
variable		a loop 300
displace_atoms	right rotate 79 79 0 0 0 1 -0.1 units box
delete_atoms	overlap 2.65 all all
Neighbor list info ...
  update every 1 steps, delay 10 steps, check yes
  max neighbors/atom: 2000, page size: 100000
  master list distance cutoff = 7.55
  ghost atom cutoff = 7.55
  binsize = 3.775, bins = 67 67 1
  2 neighbor lists, perpetual/occasional/extra = 1 1 0
  (1) command delete_atoms, occasional
      attributes: full, newton on
      pair build: full/bin/atomonly
      stencil: full/bin/3d
      bin: standard
  (2) pair eam, perpetual
      attributes: half, newton on
      pair build: half/bin/atomonly/newton
      stencil: half/bin/3d/newton
      bin: standard
Deleted 1 atoms, new total = 2702
minimize		1e-20 1e-20 1000000 1000000
WARNING: Using 'neigh_modify every 1 delay 0 check yes' setting during minimization (../min.cpp:168)
Neighbor list info ...
  update every 1 steps, delay 0 steps, check yes
  max neighbors/atom: 2000, page size: 100000
  master list distance cutoff = 7.55
  ghost atom cutoff = 7.55
  binsize = 3.775, bins = 67 67 1
  1 neighbor lists, perpetual/occasional/extra = 1 0 0
  (1) pair eam, perpetual
      attributes: half, newton on
      pair build: half/bin/atomonly/newton
      stencil: half/bin/3d/newton
      bin: standard
Per MPI rank memory allocation (min/avg/max) = 1.568 | 5.357 | 6.027 Mbytes
Step Temp E_pair E_mol TotEng Press 
    7787            0   -10523.958            0   -10523.958   -668.15615 
    8131            0   -10524.574            0   -10524.574   -678.05328 
Loop time of 0.993316 on 8 procs for 344 steps with 2702 atoms

98.4% CPU use with 8 MPI tasks x no OpenMP threads

Minimization stats:
  Stopping criterion = energy tolerance
  Energy initial, next-to-last, final = 
        -10523.9583827     -10524.5737783     -10524.5737783
  Force two-norm initial, final = 1.09435 2.78545e-05
  Force max component initial, final = 0.37153 4.15117e-06
  Final line search alpha, max atom move = 1 4.15117e-06
  Iterations, force evaluations = 344 683

MPI task timing breakdown:
Section |  min time  |  avg time  |  max time  |%varavg| %total
---------------------------------------------------------------
Pair    | 0.00015092 | 0.54712    | 0.93982    |  39.6 | 55.08
Neigh   | 0          | 0          | 0          |   0.0 |  0.00
Comm    | 0.00019145 | 0.21534    | 0.53903    |  45.0 | 21.68
Output  | 0          | 0          | 0          |   0.0 |  0.00
Modify  | 4.7207e-05 | 0.00061134 | 0.0013056  |   0.0 |  0.06
Other   |            | 0.2302     |            |       | 23.18

Nlocal:    337.75 ave 796 max 0 min
Histogram: 2 2 0 0 1 0 0 1 0 2
Nghost:    2662.25 ave 6028 max 0 min
Histogram: 2 1 1 0 1 0 0 1 0 2
Neighs:    14280.2 ave 33916 max 0 min
Histogram: 2 2 0 0 1 0 0 1 0 2

Total # of neighbors = 114242
Ave neighs/atom = 42.2805
Neighbor list builds = 0
Dangerous builds = 0
next			a
jump			in.relax loopa
variable		a loop 300
displace_atoms	right rotate 79 79 0 0 0 1 -0.1 units box
delete_atoms	overlap 2.65 all all
Neighbor list info ...
  update every 1 steps, delay 10 steps, check yes
  max neighbors/atom: 2000, page size: 100000
  master list distance cutoff = 7.55
  ghost atom cutoff = 7.55
  binsize = 3.775, bins = 67 67 1
  2 neighbor lists, perpetual/occasional/extra = 1 1 0
  (1) command delete_atoms, occasional
      attributes: full, newton on
      pair build: full/bin/atomonly
      stencil: full/bin/3d
      bin: standard
  (2) pair eam, perpetual
      attributes: half, newton on
      pair build: half/bin/atomonly/newton
      stencil: half/bin/3d/newton
      bin: standard
Deleted 1 atoms, new total = 2701
minimize		1e-20 1e-20 1000000 1000000
WARNING: Using 'neigh_modify every 1 delay 0 check yes' setting during minimization (../min.cpp:168)
Neighbor list info ...
  update every 1 steps, delay 0 steps, check yes
  max neighbors/atom: 2000, page size: 100000
  master list distance cutoff = 7.55
  ghost atom cutoff = 7.55
  binsize = 3.775, bins = 67 67 1
  1 neighbor lists, perpetual/occasional/extra = 1 0 0
  (1) pair eam, perpetual
      attributes: half, newton on
      pair build: half/bin/atomonly/newton
      stencil: half/bin/3d/newton
      bin: standard
Per MPI rank memory allocation (min/avg/max) = 1.568 | 5.357 | 6.027 Mbytes
Step Temp E_pair E_mol TotEng Press 
    8131            0    -10519.63            0    -10519.63   -715.18003 
    8730            0   -10520.392            0   -10520.392   -733.65827 
Loop time of 1.74989 on 8 procs for 599 steps with 2701 atoms

98.5% CPU use with 8 MPI tasks x no OpenMP threads

Minimization stats:
  Stopping criterion = energy tolerance
  Energy initial, next-to-last, final = 
        -10519.6303616     -10520.3916135     -10520.3916135
  Force two-norm initial, final = 1.1076 5.73173e-08
  Force max component initial, final = 0.567141 1.58941e-08
  Final line search alpha, max atom move = 1 1.58941e-08
  Iterations, force evaluations = 599 1191

MPI task timing breakdown:
Section |  min time  |  avg time  |  max time  |%varavg| %total
---------------------------------------------------------------
Pair    | 0.00028133 | 0.96465    | 1.655      |  52.6 | 55.13
Neigh   | 9.0599e-06 | 0.0011222  | 0.0027645  |   3.1 |  0.06
Comm    | 0.00036073 | 0.37711    | 0.95071    |  59.7 | 21.55
Output  | 0          | 0          | 0          |   0.0 |  0.00
Modify  | 7.844e-05  | 0.0010839  | 0.0023038  |   2.7 |  0.06
Other   |            | 0.4059     |            |       | 23.20

Nlocal:    337.625 ave 796 max 0 min
Histogram: 2 2 0 0 1 0 0 1 0 2
Nghost:    2658 ave 6022 max 0 min
Histogram: 2 1 1 0 1 0 0 1 0 2
Neighs:    14290.9 ave 33918 max 0 min
Histogram: 2 2 0 0 1 0 0 1 0 2

Total # of neighbors = 114327
Ave neighs/atom = 42.3277
Neighbor list builds = 2
Dangerous builds = 0
next			a
jump			in.relax loopa
variable		a loop 300
displace_atoms	right rotate 79 79 0 0 0 1 -0.1 units box
delete_atoms	overlap 2.65 all all
Neighbor list info ...
  update every 1 steps, delay 10 steps, check yes
  max neighbors/atom: 2000, page size: 100000
  master list distance cutoff = 7.55
  ghost atom cutoff = 7.55
  binsize = 3.775, bins = 67 67 1
  2 neighbor lists, perpetual/occasional/extra = 1 1 0
  (1) command delete_atoms, occasional
      attributes: full, newton on
      pair build: full/bin/atomonly
      stencil: full/bin/3d
      bin: standard
  (2) pair eam, perpetual
      attributes: half, newton on
      pair build: half/bin/atomonly/newton
      stencil: half/bin/3d/newton
      bin: standard
Deleted 0 atoms, new total = 2701
minimize		1e-20 1e-20 1000000 1000000
WARNING: Using 'neigh_modify every 1 delay 0 check yes' setting during minimization (../min.cpp:168)
Neighbor list info ...
  update every 1 steps, delay 0 steps, check yes
  max neighbors/atom: 2000, page size: 100000
  master list distance cutoff = 7.55
  ghost atom cutoff = 7.55
  binsize = 3.775, bins = 67 67 1
  1 neighbor lists, perpetual/occasional/extra = 1 0 0
  (1) pair eam, perpetual
      attributes: half, newton on
      pair build: half/bin/atomonly/newton
      stencil: half/bin/3d/newton
      bin: standard
Per MPI rank memory allocation (min/avg/max) = 1.568 | 5.357 | 6.027 Mbytes
Step Temp E_pair E_mol TotEng Press 
    8730            0   -10520.313            0   -10520.313   -732.40128 
    9006            0   -10520.371            0   -10520.371   -741.50703 
Loop time of 0.794299 on 8 procs for 276 steps with 2701 atoms

98.5% CPU use with 8 MPI tasks x no OpenMP threads

Minimization stats:
  Stopping criterion = energy tolerance
  Energy initial, next-to-last, final = 
        -10520.3128524     -10520.3710759     -10520.3710759
  Force two-norm initial, final = 0.786264 2.0491e-05
  Force max component initial, final = 0.233778 4.22279e-06
  Final line search alpha, max atom move = 1 4.22279e-06
  Iterations, force evaluations = 276 552

MPI task timing breakdown:
Section |  min time  |  avg time  |  max time  |%varavg| %total
---------------------------------------------------------------
Pair    | 0.00012136 | 0.44028    | 0.7522     |  35.7 | 55.43
Neigh   | 0          | 0          | 0          |   0.0 |  0.00
Comm    | 0.00010324 | 0.17064    | 0.43114    |  41.1 | 21.48
Output  | 0          | 0          | 0          |   0.0 |  0.00
Modify  | 3.2902e-05 | 0.00050914 | 0.0010917  |   0.0 |  0.06
Other   |            | 0.1829     |            |       | 23.02

Nlocal:    337.625 ave 797 max 0 min
Histogram: 2 2 0 0 1 0 0 1 0 2
Nghost:    2658 ave 6021 max 0 min
Histogram: 2 1 1 0 1 0 0 1 0 2
Neighs:    14291.8 ave 33970 max 0 min
Histogram: 2 2 0 0 1 0 0 1 0 2

Total # of neighbors = 114334
Ave neighs/atom = 42.3302
Neighbor list builds = 0
Dangerous builds = 0
next			a
jump			in.relax loopa
variable		a loop 300
displace_atoms	right rotate 79 79 0 0 0 1 -0.1 units box
delete_atoms	overlap 2.65 all all
Neighbor list info ...
  update every 1 steps, delay 10 steps, check yes
  max neighbors/atom: 2000, page size: 100000
  master list distance cutoff = 7.55
  ghost atom cutoff = 7.55
  binsize = 3.775, bins = 67 67 1
  2 neighbor lists, perpetual/occasional/extra = 1 1 0
  (1) command delete_atoms, occasional
      attributes: full, newton on
      pair build: full/bin/atomonly
      stencil: full/bin/3d
      bin: standard
  (2) pair eam, perpetual
      attributes: half, newton on
      pair build: half/bin/atomonly/newton
      stencil: half/bin/3d/newton
      bin: standard
Deleted 0 atoms, new total = 2701
minimize		1e-20 1e-20 1000000 1000000
WARNING: Using 'neigh_modify every 1 delay 0 check yes' setting during minimization (../min.cpp:168)
Neighbor list info ...
  update every 1 steps, delay 0 steps, check yes
  max neighbors/atom: 2000, page size: 100000
  master list distance cutoff = 7.55
  ghost atom cutoff = 7.55
  binsize = 3.775, bins = 67 67 1
  1 neighbor lists, perpetual/occasional/extra = 1 0 0
  (1) pair eam, perpetual
      attributes: half, newton on
      pair build: half/bin/atomonly/newton
      stencil: half/bin/3d/newton
      bin: standard
Per MPI rank memory allocation (min/avg/max) = 1.568 | 5.357 | 6.027 Mbytes
Step Temp E_pair E_mol TotEng Press 
    9006            0   -10520.289            0   -10520.289   -740.04008 
    9373            0   -10520.348            0   -10520.348   -749.33578 
Loop time of 1.06703 on 8 procs for 367 steps with 2701 atoms

98.2% CPU use with 8 MPI tasks x no OpenMP threads

Minimization stats:
  Stopping criterion = energy tolerance
  Energy initial, next-to-last, final = 
        -10520.2893706     -10520.3476217     -10520.3476217
  Force two-norm initial, final = 0.786786 4.27272e-06
  Force max component initial, final = 0.234668 1.21508e-06
  Final line search alpha, max atom move = 1 1.21508e-06
  Iterations, force evaluations = 367 734

MPI task timing breakdown:
Section |  min time  |  avg time  |  max time  |%varavg| %total
---------------------------------------------------------------
Pair    | 0.00015974 | 0.58939    | 1.0097     |  41.3 | 55.24
Neigh   | 0          | 0          | 0          |   0.0 |  0.00
Comm    | 0.00013375 | 0.23015    | 0.58124    |  47.1 | 21.57
Output  | 0          | 0          | 0          |   0.0 |  0.00
Modify  | 4.4107e-05 | 0.00066492 | 0.0014491  |   0.0 |  0.06
Other   |            | 0.2468     |            |       | 23.13

Nlocal:    337.625 ave 795 max 0 min
Histogram: 2 2 0 0 1 0 0 1 0 2
Nghost:    2657.88 ave 6023 max 0 min
Histogram: 2 1 1 0 1 0 0 1 0 2
Neighs:    14293.5 ave 33895 max 0 min
Histogram: 2 2 0 0 1 0 0 1 0 2

Total # of neighbors = 114348
Ave neighs/atom = 42.3354
Neighbor list builds = 0
Dangerous builds = 0
next			a
jump			in.relax loopa
variable		a loop 300
displace_atoms	right rotate 79 79 0 0 0 1 -0.1 units box
delete_atoms	overlap 2.65 all all
Neighbor list info ...
  update every 1 steps, delay 10 steps, check yes
  max neighbors/atom: 2000, page size: 100000
  master list distance cutoff = 7.55
  ghost atom cutoff = 7.55
  binsize = 3.775, bins = 67 67 1
  2 neighbor lists, perpetual/occasional/extra = 1 1 0
  (1) command delete_atoms, occasional
      attributes: full, newton on
      pair build: full/bin/atomonly
      stencil: full/bin/3d
      bin: standard
  (2) pair eam, perpetual
      attributes: half, newton on
      pair build: half/bin/atomonly/newton
      stencil: half/bin/3d/newton
      bin: standard
Deleted 0 atoms, new total = 2701
minimize		1e-20 1e-20 1000000 1000000
WARNING: Using 'neigh_modify every 1 delay 0 check yes' setting during minimization (../min.cpp:168)
Neighbor list info ...
  update every 1 steps, delay 0 steps, check yes
  max neighbors/atom: 2000, page size: 100000
  master list distance cutoff = 7.55
  ghost atom cutoff = 7.55
  binsize = 3.775, bins = 67 67 1
  1 neighbor lists, perpetual/occasional/extra = 1 0 0
  (1) pair eam, perpetual
      attributes: half, newton on
      pair build: half/bin/atomonly/newton
      stencil: half/bin/3d/newton
      bin: standard
Per MPI rank memory allocation (min/avg/max) = 1.568 | 5.357 | 6.027 Mbytes
Step Temp E_pair E_mol TotEng Press 
    9373            0   -10520.263            0   -10520.263   -747.67831 
    9614            0   -10520.321            0   -10520.321   -757.08281 
Loop time of 0.712925 on 8 procs for 241 steps with 2701 atoms

98.2% CPU use with 8 MPI tasks x no OpenMP threads

Minimization stats:
  Stopping criterion = energy tolerance
  Energy initial, next-to-last, final = 
        -10520.2630816     -10520.3212545     -10520.3212545
  Force two-norm initial, final = 0.78709 1.63112e-05
  Force max component initial, final = 0.235514 3.33615e-06
  Final line search alpha, max atom move = 1 3.33615e-06
  Iterations, force evaluations = 241 482

MPI task timing breakdown:
Section |  min time  |  avg time  |  max time  |%varavg| %total
---------------------------------------------------------------
Pair    | 0.0001545  | 0.39366    | 0.66752    |  33.6 | 55.22
Neigh   | 0          | 0          | 0          |   0.0 |  0.00
Comm    | 0.00015521 | 0.15202    | 0.38128    |  37.9 | 21.32
Output  | 0          | 0          | 0          |   0.0 |  0.00
Modify  | 4.53e-05   | 0.00045437 | 0.00093222 |   0.0 |  0.06
Other   |            | 0.1668     |            |       | 23.39

Nlocal:    337.625 ave 796 max 0 min
Histogram: 2 2 0 0 1 0 0 1 0 2
Nghost:    2657.12 ave 6023 max 0 min
Histogram: 2 1 1 0 1 0 0 1 0 2
Neighs:    14294.1 ave 33947 max 0 min
Histogram: 2 2 0 0 1 0 0 1 0 2

Total # of neighbors = 114353
Ave neighs/atom = 42.3373
Neighbor list builds = 0
Dangerous builds = 0
next			a
jump			in.relax loopa
variable		a loop 300
displace_atoms	right rotate 79 79 0 0 0 1 -0.1 units box
delete_atoms	overlap 2.65 all all
Neighbor list info ...
  update every 1 steps, delay 10 steps, check yes
  max neighbors/atom: 2000, page size: 100000
  master list distance cutoff = 7.55
  ghost atom cutoff = 7.55
  binsize = 3.775, bins = 67 67 1
  2 neighbor lists, perpetual/occasional/extra = 1 1 0
  (1) command delete_atoms, occasional
      attributes: full, newton on
      pair build: full/bin/atomonly
      stencil: full/bin/3d
      bin: standard
  (2) pair eam, perpetual
      attributes: half, newton on
      pair build: half/bin/atomonly/newton
      stencil: half/bin/3d/newton
      bin: standard
Deleted 0 atoms, new total = 2701
minimize		1e-20 1e-20 1000000 1000000
WARNING: Using 'neigh_modify every 1 delay 0 check yes' setting during minimization (../min.cpp:168)
Neighbor list info ...
  update every 1 steps, delay 0 steps, check yes
  max neighbors/atom: 2000, page size: 100000
  master list distance cutoff = 7.55
  ghost atom cutoff = 7.55
  binsize = 3.775, bins = 67 67 1
  1 neighbor lists, perpetual/occasional/extra = 1 0 0
  (1) pair eam, perpetual
      attributes: half, newton on
      pair build: half/bin/atomonly/newton
      stencil: half/bin/3d/newton
      bin: standard
Per MPI rank memory allocation (min/avg/max) = 1.568 | 5.357 | 6.027 Mbytes
Step Temp E_pair E_mol TotEng Press 
    9614            0   -10520.234            0   -10520.234    -755.1958 
   10184            0   -10520.292            0   -10520.292   -764.69144 
Loop time of 1.64949 on 8 procs for 570 steps with 2701 atoms

97.7% CPU use with 8 MPI tasks x no OpenMP threads

Minimization stats:
  Stopping criterion = energy tolerance
  Energy initial, next-to-last, final = 
        -10520.2339688     -10520.2919907     -10520.2919907
  Force two-norm initial, final = 0.787306 4.23799e-08
  Force max component initial, final = 0.236365 5.58023e-09
  Final line search alpha, max atom move = 1 5.58023e-09
  Iterations, force evaluations = 570 1140

MPI task timing breakdown:
Section |  min time  |  avg time  |  max time  |%varavg| %total
---------------------------------------------------------------
Pair    | 0.00029922 | 0.90983    | 1.5598     |  51.3 | 55.16
Neigh   | 0          | 0          | 0          |   0.0 |  0.00
Comm    | 0.00034952 | 0.35768    | 0.90152    |  58.7 | 21.68
Output  | 0          | 0          | 0          |   0.0 |  0.00
Modify  | 9.0837e-05 | 0.001044   | 0.0022309  |   2.6 |  0.06
Other   |            | 0.3809     |            |       | 23.09

Nlocal:    337.625 ave 798 max 0 min
Histogram: 2 2 0 0 1 0 0 1 0 2
Nghost:    2657.12 ave 6027 max 0 min
Histogram: 2 1 1 0 1 0 0 1 0 2
Neighs:    14293.5 ave 34034 max 0 min
Histogram: 2 2 0 0 1 0 0 1 0 2

Total # of neighbors = 114348
Ave neighs/atom = 42.3354
Neighbor list builds = 0
Dangerous builds = 0
next			a
jump			in.relax loopa
variable		a loop 300
displace_atoms	right rotate 79 79 0 0 0 1 -0.1 units box
delete_atoms	overlap 2.65 all all
Neighbor list info ...
  update every 1 steps, delay 10 steps, check yes
  max neighbors/atom: 2000, page size: 100000
  master list distance cutoff = 7.55
  ghost atom cutoff = 7.55
  binsize = 3.775, bins = 67 67 1
  2 neighbor lists, perpetual/occasional/extra = 1 1 0
  (1) command delete_atoms, occasional
      attributes: full, newton on
      pair build: full/bin/atomonly
      stencil: full/bin/3d
      bin: standard
  (2) pair eam, perpetual
      attributes: half, newton on
      pair build: half/bin/atomonly/newton
      stencil: half/bin/3d/newton
      bin: standard
Deleted 0 atoms, new total = 2701
minimize		1e-20 1e-20 1000000 1000000
WARNING: Using 'neigh_modify every 1 delay 0 check yes' setting during minimization (../min.cpp:168)
Neighbor list info ...
  update every 1 steps, delay 0 steps, check yes
  max neighbors/atom: 2000, page size: 100000
  master list distance cutoff = 7.55
  ghost atom cutoff = 7.55
  binsize = 3.775, bins = 67 67 1
  1 neighbor lists, perpetual/occasional/extra = 1 0 0
  (1) pair eam, perpetual
      attributes: half, newton on
      pair build: half/bin/atomonly/newton
      stencil: half/bin/3d/newton
      bin: standard
Per MPI rank memory allocation (min/avg/max) = 1.568 | 5.357 | 6.027 Mbytes
Step Temp E_pair E_mol TotEng Press 
   10184            0   -10520.202            0   -10520.202   -762.60766 
   10451            0    -10520.26            0    -10520.26   -772.21876 
Loop time of 0.78931 on 8 procs for 267 steps with 2701 atoms

97.5% CPU use with 8 MPI tasks x no OpenMP threads

Minimization stats:
  Stopping criterion = energy tolerance
  Energy initial, next-to-last, final = 
        -10520.2019151     -10520.2598403     -10520.2598403
  Force two-norm initial, final = 0.787531 1.78022e-05
  Force max component initial, final = 0.237206 3.63277e-06
  Final line search alpha, max atom move = 1 3.63277e-06
  Iterations, force evaluations = 267 534

MPI task timing breakdown:
Section |  min time  |  avg time  |  max time  |%varavg| %total
---------------------------------------------------------------
Pair    | 0.00013089 | 0.43313    | 0.74638    |  35.4 | 54.87
Neigh   | 0          | 0          | 0          |   0.0 |  0.00
Comm    | 0.00014091 | 0.17245    | 0.43354    |  40.3 | 21.85
Output  | 0          | 0          | 0          |   0.0 |  0.00
Modify  | 3.7432e-05 | 0.00048414 | 0.001054   |   0.0 |  0.06
Other   |            | 0.1833     |            |       | 23.22

Nlocal:    337.625 ave 798 max 0 min
Histogram: 2 2 0 0 1 0 0 1 0 2
Nghost:    2656.12 ave 6021 max 0 min
Histogram: 2 1 1 0 1 0 0 1 0 2
Neighs:    14294.8 ave 34050 max 0 min
Histogram: 2 2 0 0 1 0 0 1 0 2

Total # of neighbors = 114358
Ave neighs/atom = 42.3391
Neighbor list builds = 0
Dangerous builds = 0
next			a
jump			in.relax loopa
variable		a loop 300
displace_atoms	right rotate 79 79 0 0 0 1 -0.1 units box
delete_atoms	overlap 2.65 all all
Neighbor list info ...
  update every 1 steps, delay 10 steps, check yes
  max neighbors/atom: 2000, page size: 100000
  master list distance cutoff = 7.55
  ghost atom cutoff = 7.55
  binsize = 3.775, bins = 67 67 1
  2 neighbor lists, perpetual/occasional/extra = 1 1 0
  (1) command delete_atoms, occasional
      attributes: full, newton on
      pair build: full/bin/atomonly
      stencil: full/bin/3d
      bin: standard
  (2) pair eam, perpetual
      attributes: half, newton on
      pair build: half/bin/atomonly/newton
      stencil: half/bin/3d/newton
      bin: standard
Deleted 0 atoms, new total = 2701
minimize		1e-20 1e-20 1000000 1000000
WARNING: Using 'neigh_modify every 1 delay 0 check yes' setting during minimization (../min.cpp:168)
Neighbor list info ...
  update every 1 steps, delay 0 steps, check yes
  max neighbors/atom: 2000, page size: 100000
  master list distance cutoff = 7.55
  ghost atom cutoff = 7.55
  binsize = 3.775, bins = 67 67 1
  1 neighbor lists, perpetual/occasional/extra = 1 0 0
  (1) pair eam, perpetual
      attributes: half, newton on
      pair build: half/bin/atomonly/newton
      stencil: half/bin/3d/newton
      bin: standard
Per MPI rank memory allocation (min/avg/max) = 1.568 | 5.357 | 6.027 Mbytes
Step Temp E_pair E_mol TotEng Press 
   10451            0   -10520.167            0   -10520.167   -769.92376 
   10816            0   -10520.225            0   -10520.225   -779.61962 
Loop time of 1.09051 on 8 procs for 365 steps with 2701 atoms

97.9% CPU use with 8 MPI tasks x no OpenMP threads

Minimization stats:
  Stopping criterion = energy tolerance
  Energy initial, next-to-last, final = 
        -10520.1669031     -10520.2248104     -10520.2248104
  Force two-norm initial, final = 0.787814 2.2648e-06
  Force max component initial, final = 0.238036 5.68052e-07
  Final line search alpha, max atom move = 1 5.68052e-07
  Iterations, force evaluations = 365 730

MPI task timing breakdown:
Section |  min time  |  avg time  |  max time  |%varavg| %total
---------------------------------------------------------------
Pair    | 0.00018573 | 0.59655    | 1.0317     |  41.4 | 54.70
Neigh   | 0          | 0          | 0          |   0.0 |  0.00
Comm    | 0.00021458 | 0.2396     | 0.60005    |  46.9 | 21.97
Output  | 0          | 0          | 0          |   0.0 |  0.00
Modify  | 4.7922e-05 | 0.00066069 | 0.0014598  |   0.0 |  0.06
Other   |            | 0.2537     |            |       | 23.26

Nlocal:    337.625 ave 798 max 0 min
Histogram: 2 2 0 0 1 0 0 1 0 2
Nghost:    2655.12 ave 6033 max 0 min
Histogram: 2 1 1 0 1 0 0 1 0 2
Neighs:    14295.2 ave 34051 max 0 min
Histogram: 2 2 0 0 1 0 0 1 0 2

Total # of neighbors = 114362
Ave neighs/atom = 42.3406
Neighbor list builds = 0
Dangerous builds = 0
next			a
jump			in.relax loopa
variable		a loop 300
displace_atoms	right rotate 79 79 0 0 0 1 -0.1 units box
delete_atoms	overlap 2.65 all all
Neighbor list info ...
  update every 1 steps, delay 10 steps, check yes
  max neighbors/atom: 2000, page size: 100000
  master list distance cutoff = 7.55
  ghost atom cutoff = 7.55
  binsize = 3.775, bins = 67 67 1
  2 neighbor lists, perpetual/occasional/extra = 1 1 0
  (1) command delete_atoms, occasional
      attributes: full, newton on
      pair build: full/bin/atomonly
      stencil: full/bin/3d
      bin: standard
  (2) pair eam, perpetual
      attributes: half, newton on
      pair build: half/bin/atomonly/newton
      stencil: half/bin/3d/newton
      bin: standard
Deleted 0 atoms, new total = 2701
minimize		1e-20 1e-20 1000000 1000000
WARNING: Using 'neigh_modify every 1 delay 0 check yes' setting during minimization (../min.cpp:168)
Neighbor list info ...
  update every 1 steps, delay 0 steps, check yes
  max neighbors/atom: 2000, page size: 100000
  master list distance cutoff = 7.55
  ghost atom cutoff = 7.55
  binsize = 3.775, bins = 67 67 1
  1 neighbor lists, perpetual/occasional/extra = 1 0 0
  (1) pair eam, perpetual
      attributes: half, newton on
      pair build: half/bin/atomonly/newton
      stencil: half/bin/3d/newton
      bin: standard
Per MPI rank memory allocation (min/avg/max) = 1.568 | 5.357 | 6.027 Mbytes
Step Temp E_pair E_mol TotEng Press 
   10816            0   -10520.129            0   -10520.129   -777.16931 
   11189            0   -10520.187            0   -10520.187   -786.94456 
Loop time of 1.08739 on 8 procs for 373 steps with 2701 atoms

97.6% CPU use with 8 MPI tasks x no OpenMP threads

Minimization stats:
  Stopping criterion = energy tolerance
  Energy initial, next-to-last, final = 
        -10520.1290422     -10520.1869192     -10520.1869192
  Force two-norm initial, final = 0.788045 4.85395e-06
  Force max component initial, final = 0.238852 1.22137e-06
  Final line search alpha, max atom move = 1 1.22137e-06
  Iterations, force evaluations = 373 746

MPI task timing breakdown:
Section |  min time  |  avg time  |  max time  |%varavg| %total
---------------------------------------------------------------
Pair    | 0.0001843  | 0.59837    | 1.0279     |  41.6 | 55.03
Neigh   | 0          | 0          | 0          |   0.0 |  0.00
Comm    | 0.00022936 | 0.23652    | 0.59729    |  47.6 | 21.75
Output  | 0          | 0          | 0          |   0.0 |  0.00
Modify  | 5.7697e-05 | 0.0006831  | 0.0014553  |   0.0 |  0.06
Other   |            | 0.2518     |            |       | 23.16

Nlocal:    337.625 ave 800 max 0 min
Histogram: 2 2 0 0 1 0 0 1 0 2
Nghost:    2655.25 ave 6031 max 0 min
Histogram: 2 1 1 0 1 0 0 1 0 2
Neighs:    14294.4 ave 34156 max 0 min
Histogram: 2 2 0 0 1 0 0 1 0 2

Total # of neighbors = 114355
Ave neighs/atom = 42.338
Neighbor list builds = 0
Dangerous builds = 0
next			a
jump			in.relax loopa
variable		a loop 300
displace_atoms	right rotate 79 79 0 0 0 1 -0.1 units box
delete_atoms	overlap 2.65 all all
Neighbor list info ...
  update every 1 steps, delay 10 steps, check yes
  max neighbors/atom: 2000, page size: 100000
  master list distance cutoff = 7.55
  ghost atom cutoff = 7.55
  binsize = 3.775, bins = 67 67 1
  2 neighbor lists, perpetual/occasional/extra = 1 1 0
  (1) command delete_atoms, occasional
      attributes: full, newton on
      pair build: full/bin/atomonly
      stencil: full/bin/3d
      bin: standard
  (2) pair eam, perpetual
      attributes: half, newton on
      pair build: half/bin/atomonly/newton
      stencil: half/bin/3d/newton
      bin: standard
Deleted 0 atoms, new total = 2701
minimize		1e-20 1e-20 1000000 1000000
WARNING: Using 'neigh_modify every 1 delay 0 check yes' setting during minimization (../min.cpp:168)
Neighbor list info ...
  update every 1 steps, delay 0 steps, check yes
  max neighbors/atom: 2000, page size: 100000
  master list distance cutoff = 7.55
  ghost atom cutoff = 7.55
  binsize = 3.775, bins = 67 67 1
  1 neighbor lists, perpetual/occasional/extra = 1 0 0
  (1) pair eam, perpetual
      attributes: half, newton on
      pair build: half/bin/atomonly/newton
      stencil: half/bin/3d/newton
      bin: standard
Per MPI rank memory allocation (min/avg/max) = 1.568 | 5.357 | 6.027 Mbytes
Step Temp E_pair E_mol TotEng Press 
   11189            0   -10520.088            0   -10520.088   -784.38665 
   11514            0   -10520.146            0   -10520.146   -794.28611 
Loop time of 0.995582 on 8 procs for 325 steps with 2701 atoms

97.8% CPU use with 8 MPI tasks x no OpenMP threads

Minimization stats:
  Stopping criterion = energy tolerance
  Energy initial, next-to-last, final = 
[...]
      bin: standard
  (2) pair eam, perpetual
      attributes: half, newton on
      pair build: half/bin/atomonly/newton
      stencil: half/bin/3d/newton
      bin: standard
Deleted 0 atoms, new total = 2658
minimize		1e-20 1e-20 1000000 1000000
WARNING: Using 'neigh_modify every 1 delay 0 check yes' setting during minimization (../min.cpp:168)
Neighbor list info ...
  update every 1 steps, delay 0 steps, check yes
  max neighbors/atom: 2000, page size: 100000
  master list distance cutoff = 7.55
  ghost atom cutoff = 7.55
  binsize = 3.775, bins = 67 67 1
  1 neighbor lists, perpetual/occasional/extra = 1 0 0
  (1) pair eam, perpetual
      attributes: half, newton on
      pair build: half/bin/atomonly/newton
      stencil: half/bin/3d/newton
      bin: standard
Per MPI rank memory allocation (min/avg/max) = 1.57 | 5.358 | 6.024 Mbytes
Step Temp E_pair E_mol TotEng Press 
  118634            0   -10341.052            0   -10341.052   -615.80915 
  118975            0    -10341.13            0    -10341.13   -625.72485 
Loop time of 0.961786 on 8 procs for 341 steps with 2658 atoms

98.4% CPU use with 8 MPI tasks x no OpenMP threads

Minimization stats:
  Stopping criterion = energy tolerance
  Energy initial, next-to-last, final = 
        -10341.0515891      -10341.129842      -10341.129842
  Force two-norm initial, final = 0.9806 1.86841e-06
  Force max component initial, final = 0.275914 2.66863e-07
  Final line search alpha, max atom move = 1 2.66863e-07
  Iterations, force evaluations = 341 682

MPI task timing breakdown:
Section |  min time  |  avg time  |  max time  |%varavg| %total
---------------------------------------------------------------
Pair    | 0.00015378 | 0.50624    | 0.90809    |  49.0 | 52.64
Neigh   | 0          | 0          | 0          |   0.0 |  0.00
Comm    | 0.00010896 | 0.12341    | 0.52329    |  47.9 | 12.83
Output  | 0          | 0          | 0          |   0.0 |  0.00
Modify  | 4.3631e-05 | 0.00060308 | 0.0012441  |   0.0 |  0.06
Other   |            | 0.3315     |            |       | 34.47

Nlocal:    332.25 ave 765 max 0 min
Histogram: 3 1 0 0 0 0 1 1 0 2
Nghost:    2410.25 ave 5543 max 0 min
Histogram: 3 1 0 0 0 0 0 2 1 1
Neighs:    14743.5 ave 33821 max 0 min
Histogram: 3 1 0 0 0 0 0 2 0 2

Total # of neighbors = 117948
Ave neighs/atom = 44.3747
Neighbor list builds = 0
Dangerous builds = 0
next			a
jump			in.relax loopa
variable		a loop 300
displace_atoms	right rotate 79 79 0 0 0 1 -0.1 units box
delete_atoms	overlap 2.65 all all
Neighbor list info ...
  update every 1 steps, delay 10 steps, check yes
  max neighbors/atom: 2000, page size: 100000
  master list distance cutoff = 7.55
  ghost atom cutoff = 7.55
  binsize = 3.775, bins = 67 67 1
  2 neighbor lists, perpetual/occasional/extra = 1 1 0
  (1) command delete_atoms, occasional
      attributes: full, newton on
      pair build: full/bin/atomonly
      stencil: full/bin/3d
      bin: standard
  (2) pair eam, perpetual
      attributes: half, newton on
      pair build: half/bin/atomonly/newton
      stencil: half/bin/3d/newton
      bin: standard
Deleted 0 atoms, new total = 2658
minimize		1e-20 1e-20 1000000 1000000
WARNING: Using 'neigh_modify every 1 delay 0 check yes' setting during minimization (../min.cpp:168)
Neighbor list info ...
  update every 1 steps, delay 0 steps, check yes
  max neighbors/atom: 2000, page size: 100000
  master list distance cutoff = 7.55
  ghost atom cutoff = 7.55
  binsize = 3.775, bins = 67 67 1
  1 neighbor lists, perpetual/occasional/extra = 1 0 0
  (1) pair eam, perpetual
      attributes: half, newton on
      pair build: half/bin/atomonly/newton
      stencil: half/bin/3d/newton
      bin: standard
Per MPI rank memory allocation (min/avg/max) = 1.57 | 5.358 | 6.024 Mbytes
Step Temp E_pair E_mol TotEng Press 
  118975            0   -10340.909            0   -10340.909   -596.75135 
  119311            0   -10340.987            0   -10340.987   -606.61919 
Loop time of 0.946015 on 8 procs for 336 steps with 2658 atoms

98.2% CPU use with 8 MPI tasks x no OpenMP threads

Minimization stats:
  Stopping criterion = energy tolerance
  Energy initial, next-to-last, final = 
        -10340.9089873     -10340.9874289     -10340.9874289
  Force two-norm initial, final = 0.983488 1.75602e-06
  Force max component initial, final = 0.277495 2.75247e-07
  Final line search alpha, max atom move = 1 2.75247e-07
  Iterations, force evaluations = 336 672

MPI task timing breakdown:
Section |  min time  |  avg time  |  max time  |%varavg| %total
---------------------------------------------------------------
Pair    | 0.00015831 | 0.49737    | 0.89689    |  48.6 | 52.58
Neigh   | 0          | 0          | 0          |   0.0 |  0.00
Comm    | 0.00011301 | 0.12248    | 0.51863    |  47.7 | 12.95
Output  | 0          | 0          | 0          |   0.0 |  0.00
Modify  | 4.673e-05  | 0.00059572 | 0.0012364  |   0.0 |  0.06
Other   |            | 0.3256     |            |       | 34.41

Nlocal:    332.25 ave 766 max 0 min
Histogram: 3 1 0 0 0 0 1 1 0 2
Nghost:    2411 ave 5542 max 0 min
Histogram: 3 1 0 0 0 0 0 2 1 1
Neighs:    14754.8 ave 33931 max 0 min
Histogram: 3 1 0 0 0 0 0 2 0 2

Total # of neighbors = 118038
Ave neighs/atom = 44.4086
Neighbor list builds = 0
Dangerous builds = 0
next			a
jump			in.relax loopa
variable		a loop 300
displace_atoms	right rotate 79 79 0 0 0 1 -0.1 units box
delete_atoms	overlap 2.65 all all
Neighbor list info ...
  update every 1 steps, delay 10 steps, check yes
  max neighbors/atom: 2000, page size: 100000
  master list distance cutoff = 7.55
  ghost atom cutoff = 7.55
  binsize = 3.775, bins = 67 67 1
  2 neighbor lists, perpetual/occasional/extra = 1 1 0
  (1) command delete_atoms, occasional
      attributes: full, newton on
      pair build: full/bin/atomonly
      stencil: full/bin/3d
      bin: standard
  (2) pair eam, perpetual
      attributes: half, newton on
      pair build: half/bin/atomonly/newton
      stencil: half/bin/3d/newton
      bin: standard
Deleted 0 atoms, new total = 2658
minimize		1e-20 1e-20 1000000 1000000
WARNING: Using 'neigh_modify every 1 delay 0 check yes' setting during minimization (../min.cpp:168)
Neighbor list info ...
  update every 1 steps, delay 0 steps, check yes
  max neighbors/atom: 2000, page size: 100000
  master list distance cutoff = 7.55
  ghost atom cutoff = 7.55
  binsize = 3.775, bins = 67 67 1
  1 neighbor lists, perpetual/occasional/extra = 1 0 0
  (1) pair eam, perpetual
      attributes: half, newton on
      pair build: half/bin/atomonly/newton
      stencil: half/bin/3d/newton
      bin: standard
Per MPI rank memory allocation (min/avg/max) = 1.57 | 5.358 | 6.024 Mbytes
Step Temp E_pair E_mol TotEng Press 
  119311            0   -10340.764            0   -10340.764   -577.57248 
  119604            0   -10340.842            0   -10340.842   -587.19657 
Loop time of 0.837543 on 8 procs for 293 steps with 2658 atoms

98.0% CPU use with 8 MPI tasks x no OpenMP threads

Minimization stats:
  Stopping criterion = energy tolerance
  Energy initial, next-to-last, final = 
        -10340.7635164     -10340.8421651     -10340.8421651
  Force two-norm initial, final = 0.985988 1.04941e-05
  Force max component initial, final = 0.278021 1.56973e-06
  Final line search alpha, max atom move = 1 1.56973e-06
  Iterations, force evaluations = 293 586

MPI task timing breakdown:
Section |  min time  |  avg time  |  max time  |%varavg| %total
---------------------------------------------------------------
Pair    | 0.00012922 | 0.43878    | 0.78861    |  45.5 | 52.39
Neigh   | 0          | 0          | 0          |   0.0 |  0.00
Comm    | 9.8944e-05 | 0.10923    | 0.45334    |  44.1 | 13.04
Output  | 0          | 0          | 0          |   0.0 |  0.00
Modify  | 3.7909e-05 | 0.00052568 | 0.0010862  |   0.0 |  0.06
Other   |            | 0.289      |            |       | 34.51

Nlocal:    332.25 ave 766 max 0 min
Histogram: 3 1 0 0 0 0 1 1 0 2
Nghost:    2411.88 ave 5542 max 0 min
Histogram: 3 1 0 0 0 0 0 2 1 1
Neighs:    14765.1 ave 33992 max 0 min
Histogram: 3 1 0 0 0 0 0 2 0 2

Total # of neighbors = 118121
Ave neighs/atom = 44.4398
Neighbor list builds = 0
Dangerous builds = 0
next			a
jump			in.relax loopa
variable		a loop 300
displace_atoms	right rotate 79 79 0 0 0 1 -0.1 units box
delete_atoms	overlap 2.65 all all
Neighbor list info ...
  update every 1 steps, delay 10 steps, check yes
  max neighbors/atom: 2000, page size: 100000
  master list distance cutoff = 7.55
  ghost atom cutoff = 7.55
  binsize = 3.775, bins = 67 67 1
  2 neighbor lists, perpetual/occasional/extra = 1 1 0
  (1) command delete_atoms, occasional
      attributes: full, newton on
      pair build: full/bin/atomonly
      stencil: full/bin/3d
      bin: standard
  (2) pair eam, perpetual
      attributes: half, newton on
      pair build: half/bin/atomonly/newton
      stencil: half/bin/3d/newton
      bin: standard
Deleted 0 atoms, new total = 2658
minimize		1e-20 1e-20 1000000 1000000
WARNING: Using 'neigh_modify every 1 delay 0 check yes' setting during minimization (../min.cpp:168)
Neighbor list info ...
  update every 1 steps, delay 0 steps, check yes
  max neighbors/atom: 2000, page size: 100000
  master list distance cutoff = 7.55
  ghost atom cutoff = 7.55
  binsize = 3.775, bins = 67 67 1
  1 neighbor lists, perpetual/occasional/extra = 1 0 0
  (1) pair eam, perpetual
      attributes: half, newton on
      pair build: half/bin/atomonly/newton
      stencil: half/bin/3d/newton
      bin: standard
Per MPI rank memory allocation (min/avg/max) = 1.57 | 5.358 | 6.024 Mbytes
Step Temp E_pair E_mol TotEng Press 
  119604            0   -10340.615            0   -10340.615    -558.0898 
  119957            0   -10340.694            0   -10340.694   -567.44187 
Loop time of 0.995143 on 8 procs for 353 steps with 2658 atoms

98.0% CPU use with 8 MPI tasks x no OpenMP threads

Minimization stats:
  Stopping criterion = energy tolerance
  Energy initial, next-to-last, final = 
        -10340.6152321     -10340.6940739     -10340.6940739
  Force two-norm initial, final = 0.988259 1.84393e-06
  Force max component initial, final = 0.277923 3.3867e-07
  Final line search alpha, max atom move = 1 3.3867e-07
  Iterations, force evaluations = 353 706

MPI task timing breakdown:
Section |  min time  |  avg time  |  max time  |%varavg| %total
---------------------------------------------------------------
Pair    | 0.00015688 | 0.52478    | 0.94211    |  49.9 | 52.73
Neigh   | 0          | 0          | 0          |   0.0 |  0.00
Comm    | 0.00011921 | 0.12703    | 0.54411    |  49.2 | 12.76
Output  | 0          | 0          | 0          |   0.0 |  0.00
Modify  | 4.7684e-05 | 0.00062469 | 0.0012946  |   0.0 |  0.06
Other   |            | 0.3427     |            |       | 34.44

Nlocal:    332.25 ave 766 max 0 min
Histogram: 3 1 0 0 0 0 1 1 0 2
Nghost:    2410.25 ave 5542 max 0 min
Histogram: 3 1 0 0 0 0 0 2 1 1
Neighs:    14776 ave 34052 max 0 min
Histogram: 3 1 0 0 0 0 0 2 0 2

Total # of neighbors = 118208
Ave neighs/atom = 44.4725
Neighbor list builds = 0
Dangerous builds = 0
next			a
jump			in.relax loopa
variable		a loop 300
displace_atoms	right rotate 79 79 0 0 0 1 -0.1 units box
delete_atoms	overlap 2.65 all all
Neighbor list info ...
  update every 1 steps, delay 10 steps, check yes
  max neighbors/atom: 2000, page size: 100000
  master list distance cutoff = 7.55
  ghost atom cutoff = 7.55
  binsize = 3.775, bins = 67 67 1
  2 neighbor lists, perpetual/occasional/extra = 1 1 0
  (1) command delete_atoms, occasional
      attributes: full, newton on
      pair build: full/bin/atomonly
      stencil: full/bin/3d
      bin: standard
  (2) pair eam, perpetual
      attributes: half, newton on
      pair build: half/bin/atomonly/newton
      stencil: half/bin/3d/newton
      bin: standard
Deleted 0 atoms, new total = 2658
minimize		1e-20 1e-20 1000000 1000000
WARNING: Using 'neigh_modify every 1 delay 0 check yes' setting during minimization (../min.cpp:168)
Neighbor list info ...
  update every 1 steps, delay 0 steps, check yes
  max neighbors/atom: 2000, page size: 100000
  master list distance cutoff = 7.55
  ghost atom cutoff = 7.55
  binsize = 3.775, bins = 67 67 1
  1 neighbor lists, perpetual/occasional/extra = 1 0 0
  (1) pair eam, perpetual
      attributes: half, newton on
      pair build: half/bin/atomonly/newton
      stencil: half/bin/3d/newton
      bin: standard
Per MPI rank memory allocation (min/avg/max) = 1.57 | 5.358 | 6.024 Mbytes
Step Temp E_pair E_mol TotEng Press 
  119957            0   -10340.464            0   -10340.464   -538.24476 
  120280            0   -10340.543            0   -10340.543   -546.55324 
Loop time of 0.9143 on 8 procs for 323 steps with 2658 atoms

98.4% CPU use with 8 MPI tasks x no OpenMP threads

Minimization stats:
  Stopping criterion = energy tolerance
  Energy initial, next-to-last, final = 
        -10340.4641325     -10340.5432257     -10340.5432257
  Force two-norm initial, final = 0.990799 7.51184e-06
  Force max component initial, final = 0.278847 1.09657e-06
  Final line search alpha, max atom move = 1 1.09657e-06
  Iterations, force evaluations = 323 646

MPI task timing breakdown:
Section |  min time  |  avg time  |  max time  |%varavg| %total
---------------------------------------------------------------
Pair    | 0.00015259 | 0.48052    | 0.86549    |  47.7 | 52.56
Neigh   | 0          | 0          | 0          |   0.0 |  0.00
Comm    | 0.00010633 | 0.11839    | 0.49966    |  46.6 | 12.95
Output  | 0          | 0          | 0          |   0.0 |  0.00
Modify  | 4.4107e-05 | 0.00058103 | 0.0012121  |   0.0 |  0.06
Other   |            | 0.3148     |            |       | 34.43

Nlocal:    332.25 ave 766 max 0 min
Histogram: 3 1 0 0 0 0 1 1 0 2
Nghost:    2410.38 ave 5536 max 0 min
Histogram: 3 1 0 0 0 0 0 2 1 1
Neighs:    14786 ave 34117 max 0 min
Histogram: 3 1 0 0 0 0 0 2 0 2

Total # of neighbors = 118288
Ave neighs/atom = 44.5026
Neighbor list builds = 0
Dangerous builds = 0
next			a
jump			in.relax loopa
variable		a loop 300
displace_atoms	right rotate 79 79 0 0 0 1 -0.1 units box
delete_atoms	overlap 2.65 all all
Neighbor list info ...
  update every 1 steps, delay 10 steps, check yes
  max neighbors/atom: 2000, page size: 100000
  master list distance cutoff = 7.55
  ghost atom cutoff = 7.55
  binsize = 3.775, bins = 67 67 1
  2 neighbor lists, perpetual/occasional/extra = 1 1 0
  (1) command delete_atoms, occasional
      attributes: full, newton on
      pair build: full/bin/atomonly
      stencil: full/bin/3d
      bin: standard
  (2) pair eam, perpetual
      attributes: half, newton on
      pair build: half/bin/atomonly/newton
      stencil: half/bin/3d/newton
      bin: standard
Deleted 0 atoms, new total = 2658
minimize		1e-20 1e-20 1000000 1000000
WARNING: Using 'neigh_modify every 1 delay 0 check yes' setting during minimization (../min.cpp:168)
Neighbor list info ...
  update every 1 steps, delay 0 steps, check yes
  max neighbors/atom: 2000, page size: 100000
  master list distance cutoff = 7.55
  ghost atom cutoff = 7.55
  binsize = 3.775, bins = 67 67 1
  1 neighbor lists, perpetual/occasional/extra = 1 0 0
  (1) pair eam, perpetual
      attributes: half, newton on
      pair build: half/bin/atomonly/newton
      stencil: half/bin/3d/newton
      bin: standard
Per MPI rank memory allocation (min/avg/max) = 1.57 | 5.358 | 6.024 Mbytes
Step Temp E_pair E_mol TotEng Press 
  120280            0    -10340.31            0    -10340.31   -517.22398 
  120639            0   -10340.389            0   -10340.389   -527.36932 
Loop time of 1.01411 on 8 procs for 359 steps with 2658 atoms

98.3% CPU use with 8 MPI tasks x no OpenMP threads

Minimization stats:
  Stopping criterion = energy tolerance
  Energy initial, next-to-last, final = 
        -10340.3103407      -10340.389475      -10340.389475
  Force two-norm initial, final = 0.993529 1.54767e-06
  Force max component initial, final = 0.280384 3.19132e-07
  Final line search alpha, max atom move = 1 3.19132e-07
  Iterations, force evaluations = 359 718

MPI task timing breakdown:
Section |  min time  |  avg time  |  max time  |%varavg| %total
---------------------------------------------------------------
Pair    | 0.00016308 | 0.53359    | 0.96305    |  50.3 | 52.62
Neigh   | 0          | 0          | 0          |   0.0 |  0.00
Comm    | 0.00011945 | 0.13121    | 0.55725    |  49.4 | 12.94
Output  | 0          | 0          | 0          |   0.0 |  0.00
Modify  | 4.53e-05   | 0.00064453 | 0.001368   |   0.0 |  0.06
Other   |            | 0.3487     |            |       | 34.38

Nlocal:    332.25 ave 766 max 0 min
Histogram: 3 1 0 0 0 0 1 1 0 2
Nghost:    2408.12 ave 5536 max 0 min
Histogram: 3 1 0 0 0 0 0 2 1 1
Neighs:    14794.8 ave 34176 max 0 min
Histogram: 3 1 0 0 0 0 0 2 0 2

Total # of neighbors = 118358
Ave neighs/atom = 44.529
Neighbor list builds = 0
Dangerous builds = 0
next			a
jump			in.relax loopa
variable		a loop 300
displace_atoms	right rotate 79 79 0 0 0 1 -0.1 units box
delete_atoms	overlap 2.65 all all
Neighbor list info ...
  update every 1 steps, delay 10 steps, check yes
  max neighbors/atom: 2000, page size: 100000
  master list distance cutoff = 7.55
  ghost atom cutoff = 7.55
  binsize = 3.775, bins = 67 67 1
  2 neighbor lists, perpetual/occasional/extra = 1 1 0
  (1) command delete_atoms, occasional
      attributes: full, newton on
      pair build: full/bin/atomonly
      stencil: full/bin/3d
      bin: standard
  (2) pair eam, perpetual
      attributes: half, newton on
      pair build: half/bin/atomonly/newton
      stencil: half/bin/3d/newton
      bin: standard
Deleted 0 atoms, new total = 2658
minimize		1e-20 1e-20 1000000 1000000
WARNING: Using 'neigh_modify every 1 delay 0 check yes' setting during minimization (../min.cpp:168)
Neighbor list info ...
  update every 1 steps, delay 0 steps, check yes
  max neighbors/atom: 2000, page size: 100000
  master list distance cutoff = 7.55
  ghost atom cutoff = 7.55
  binsize = 3.775, bins = 67 67 1
  1 neighbor lists, perpetual/occasional/extra = 1 0 0
  (1) pair eam, perpetual
      attributes: half, newton on
      pair build: half/bin/atomonly/newton
      stencil: half/bin/3d/newton
      bin: standard
Per MPI rank memory allocation (min/avg/max) = 1.57 | 5.358 | 6.024 Mbytes
Step Temp E_pair E_mol TotEng Press 
  120639            0   -10340.154            0   -10340.154   -497.92726 
  120981            0   -10340.233            0   -10340.233   -507.87644 
Loop time of 1.029 on 8 procs for 342 steps with 2658 atoms

98.2% CPU use with 8 MPI tasks x no OpenMP threads

Minimization stats:
  Stopping criterion = energy tolerance
  Energy initial, next-to-last, final = 
        -10340.1535668     -10340.2328572     -10340.2328572
  Force two-norm initial, final = 0.996245 2.88781e-06
  Force max component initial, final = 0.282168 3.02545e-07
  Final line search alpha, max atom move = 1 3.02545e-07
  Iterations, force evaluations = 342 684

MPI task timing breakdown:
Section |  min time  |  avg time  |  max time  |%varavg| %total
---------------------------------------------------------------
Pair    | 0.00016642 | 0.53269    | 0.9749     |  50.0 | 51.77
Neigh   | 0          | 0          | 0          |   0.0 |  0.00
Comm    | 0.00011921 | 0.1417     | 0.56305    |  48.2 | 13.77
Output  | 0          | 0          | 0          |   0.0 |  0.00
Modify  | 6.1274e-05 | 0.00064191 | 0.0013707  |   0.0 |  0.06
Other   |            | 0.354      |            |       | 34.40

Nlocal:    332.25 ave 766 max 0 min
Histogram: 3 1 0 0 0 0 1 1 0 2
Nghost:    2405.88 ave 5536 max 0 min
Histogram: 3 1 0 0 0 0 0 2 1 1
Neighs:    14803.9 ave 34216 max 0 min
Histogram: 3 1 0 0 0 0 0 2 0 2

Total # of neighbors = 118431
Ave neighs/atom = 44.5564
Neighbor list builds = 0
Dangerous builds = 0
next			a
jump			in.relax loopa
Total wall time: 0:06:03
