LAMMPS (12 Dec 2018)
units			metal
boundary		p p p
atom_style		atomic
# Lattice constant 4.0782

region			mybox block 0.0 600 0.0 600 0.0 200 units box
create_box		1 mybox
Created orthogonal box = (0 0 0) to (600 600 200)
  3 by 4 by 2 MPI processor grid

region			xtal11 prism 100 300 300 450 0 200 100 0 0 units box
region			xtal12 prism 300 500 300 450 0 200 -100 0 0 units box
region			xtal13 prism 200 400 150 300 0 200 -100 0 0 units box
region			xtal14 prism 200 400 150 300 0 200 100 0 0 units box
region			xtal1 union 4 xtal11 xtal12 xtal13 xtal14

lattice			fcc 4.0782 origin 0 0 0 orient x 13 -8 -5 orient y 1 6 -7 orient z 1 1 1
Lattice spacing in x,y,z = 6.60134 6.15669 7.06365
create_atoms	1 region xtal1
Created 1059515 atoms
  Time spent = 0.115402 secs
group			grain2 region xtal1
1059515 atoms in group grain2
displace_atoms	grain2 move 0 300 0 units box

lattice			fcc 4.0782 origin 0 0 0 orient x 1 -1 0 orient y 1 1 -2 orient z 1 1 1
Lattice spacing in x,y,z = 5.76745 6.65967 7.06365
create_atoms	1 region xtal1
Created 1057666 atoms
  Time spent = 0.0894268 secs
group			grain3 region xtal1
1057666 atoms in group grain3
displace_atoms	grain3 move 300 150 0 units box

lattice			fcc 4.0782 origin 0 0 0 orient x -5 4 1 orient y -1 -2 3 orient z 1 1 1
Lattice spacing in x,y,z = 6.2928 6.53967 7.06365
create_atoms	1 region xtal1
Created 1058896 atoms
  Time spent = 0.095912 secs
group			grain4 region xtal1
1058896 atoms in group grain4
displace_atoms	grain4 move 300 -150 0 units box

lattice			fcc 4.0782 origin 0 0 0 orient x 1 1 -2 orient y -1 1 0 orient z 1 1 1
Lattice spacing in x,y,z = 6.65967 5.76745 7.06365
create_atoms	1 region xtal1
Created 1058423 atoms
  Time spent = 0.0945678 secs
group			grain1 region xtal1
1058423 atoms in group grain1

region			del1 block EDGE EDGE EDGE EDGE 0 25 units box
region			del2 block EDGE EDGE EDGE EDGE 175 200 units box
region			del union 2 del1 del2

mass			1 196.967

pair_style		eam
pair_coeff		* * /home/yzhang951/Au_Al/Au_u3.eam
Reading potential file /home/yzhang951/Au_Al/Au_u3.eam with DATE: 2007-06-11

delete_atoms	overlap 2.8 all all
Neighbor list info ...
  update every 1 steps, delay 10 steps, check yes
  max neighbors/atom: 2000, page size: 100000
  master list distance cutoff = 7.55
  ghost atom cutoff = 7.55
  binsize = 3.775, bins = 159 159 53
  2 neighbor lists, perpetual/occasional/extra = 1 1 0
  (1) command delete_atoms, occasional
      attributes: full, newton on
      pair build: full/bin/atomonly
      stencil: full/bin/3d
      bin: standard
  (2) pair eam, perpetual
      attributes: half, newton on
      pair build: half/bin/atomonly/newton
      stencil: half/bin/3d/newton
      bin: standard
Deleted 77531 atoms, new total = 4156969
delete_atoms	region del
Deleted 989768 atoms, new total = 3167201

thermo			100
thermo_style	custom step temp etotal lx pxx pyy pzz
dump			1 all cfg 1000 Au*.cfg mass type xs ys zs
dump_modify		1 element Au sort id

#fix				1 all box/relax x 100 y 0 z 0
#minimize		1e-10 1e-10 100000 100000

velocity		all create 900.0 52386 dist gaussian units box
fix				1 all npt temp 900 900 0.1 x 1 1 0.5 y 1 1 0.5 z 1 1 0.5
run				10000
Neighbor list info ...
  update every 1 steps, delay 10 steps, check yes
  max neighbors/atom: 2000, page size: 100000
  master list distance cutoff = 7.55
  ghost atom cutoff = 7.55
  binsize = 3.775, bins = 159 159 53
  1 neighbor lists, perpetual/occasional/extra = 1 0 0
  (1) pair eam, perpetual
      attributes: half, newton on
      pair build: half/bin/atomonly/newton
      stencil: half/bin/3d/newton
      bin: standard
Per MPI rank memory allocation (min/avg/max) = 90.31 | 91 | 91.87 Mbytes
Step Temp TotEng Lx Pxx Pyy Pzz 
       0          900    -12005806          600    1055.9433    1042.7236    2312.4787 
     100    227.54862    -12006131    602.09537    10976.169    10940.718    11961.663 
     200    415.48725    -11996924    602.62697    460.43415     410.1683     1420.202 
     300    549.96684    -11983597    602.31129    -3474.905    -3570.122   -2880.1383 
     400    453.31273    -11968234    602.19911    1638.6543    1521.0792    2268.4186 
     500    544.81979    -11951321     601.8942   -16.565042   -118.93534    538.73992 
     600    554.55216    -11933571     602.1316   -1327.6147   -1435.4051   -896.38434 
     700    556.22477    -11914200    601.96272    1295.3752    1187.0997    1683.2989 
     800    614.94963    -11893898     602.0453   -148.04528   -230.03432    153.70339 
     900    608.95235    -11872884    602.33257   -46.188323   -101.72683    104.78466 
    1000    647.65462    -11850930    602.30925    777.37873    746.06102    871.06265 
    1100     673.7429    -11828503    602.64958    2.2175729   -37.935079    49.934922 
    1200    693.00682    -11805637    602.82116     289.2025    272.21403    244.39893 
    1300    721.95249    -11782549    603.02335    378.06886     375.1209    378.68116 
    1400    746.49641    -11759477    603.32134    155.76971    159.78912    183.02866 
    1500     771.6155    -11736695    603.48135    255.04758    266.12488    201.88052 
    1600    793.25596    -11714383    603.72351    268.05042    274.76418    238.19486 
    1700    817.68143    -11692888    603.96608    218.88144    213.20992    209.95208 
    1800      838.598    -11672577     604.1581    174.20145    174.94558    125.90973 
    1900    858.59625    -11653811    604.34313    194.64735    207.01092    170.54013 
    2000    874.93897    -11637070    604.53972    157.02807    157.92716    150.52494 
    2100    889.25863    -11622720    604.68251    90.161869    102.79651    31.654017 
    2200    899.94519    -11611614    604.79264    86.830145    86.730541    45.874352 
    2300    905.99101    -11604666    604.90395    31.522522    12.631341   -15.642034 
    2400    905.98531    -11603061    604.93549    -9.605115   -9.5859097   -61.650355 
    2500    902.70397    -11606163    604.89789   -45.500241   -40.523389   -59.938941 
    2600     898.4648    -11610825     604.8341   -37.681537   -29.006746   -43.546278 
    2700    897.07622    -11614049    604.76946   -7.1062323   -30.812421   -42.774454 
    2800    896.33293    -11614700    604.76008    5.9760154   -2.3362824   -29.953754 
    2900    898.89904    -11612692    604.78281    7.7209945    29.320139    15.370931 
    3000    900.85434    -11609876    604.79302     18.27798   -8.7690513   -4.6035396 
    3100    902.13587    -11607832    604.81428  -0.18016293    4.0072647   -14.831301 
    3200    902.24927    -11607492    604.81166    4.0475884  -0.54642115   -37.637697 
    3300     900.1037    -11608776    604.80893    -27.26044   -7.8966494   -45.870074 
    3400    899.44313    -11610317    604.76355   -5.0717018    11.746648   -38.393735 
    3500    898.61749    -11611336    604.73054   -5.9947963   -2.1969934   -15.089142 
    3600    899.15184    -11611279    604.72095    5.7665244   -4.8141719   -29.328589 
    3700    899.45636    -11610452    604.73522   -8.1333213    3.1026202   -26.132938 
    3800    901.03397    -11609353    604.73664    12.532325   -9.2761425   -5.8175427 
    3900    901.52541    -11608975    604.75133   -7.0530414    -4.039927   -30.820057 
    4000    900.18243    -11609710    604.74451   -15.205024    3.7566927   -41.247023 
    4100    899.92116    -11610788    604.71745    25.667082   -20.111098    5.3313039 
    4200    899.34882    -11611875    604.72998    28.072886    34.920478   -12.322451 
    4300    899.12888    -11612513    604.74825    4.7257823    9.4790556   -10.816792 
    4400    899.08548    -11612310    604.74973   -36.331141   -13.988143   -36.183675 
    4500    899.93467    -11611478    604.72279    18.883309   -1.1990018    -7.253546 
    4600     901.2071    -11610675    604.74027     12.78455      13.0834    17.225181 
    4700    900.90356    -11610631    604.75573   -21.081692   -10.333738   -20.083733 
    4800    899.55307    -11611312    604.73435   -2.1356029      6.81504    1.9168155 
    4900    899.25708    -11611748    604.72019    13.632439  -0.36355174   -1.7781051 
    5000    899.41612    -11611697      604.737    22.059312    17.853873    26.064648 
    5100    898.96436    -11611159    604.76215    2.0908511    20.853384   -16.699946 
    5200     900.4489    -11609953    604.76061   -7.2064712   -7.9228615   -17.073746 
    5300    901.37964    -11609115    604.74224  -0.73129133   -10.138943     9.463852 
    5400    900.33503    -11609180    604.73031   0.19091313   -9.5589911   -39.604186 
    5500    899.97528    -11609624    604.75194   -4.0915522    0.7503896    15.665992 
    5600    900.74876    -11610124      604.752    16.626449   0.15202563    17.145382 
    5700    899.73917    -11611010    604.75346    -45.85001    9.2070016   -11.981078 
    5800    898.66927    -11611747    604.67996     27.39012   -7.1758035    -22.68042 
    5900     899.3744    -11611527    604.68906    27.960523   -5.7409423    24.375768 
    6000      900.365    -11610804    604.75278    -6.554234    34.763084    7.9412277 
    6100    901.75303    -11610505    604.74186   0.41835533    14.881605    24.241834 
    6200    900.44536    -11611317    604.68346   -23.300413   -45.468596   -31.225097 
    6300    898.70287    -11612506    604.64665    4.1731869   -10.595084   -52.336441 
    6400    897.70314    -11612762    604.70485    12.996119    41.653212    46.775529 
    6500    898.95638    -11611270    604.71329    18.985556    36.782238    72.130969 
    6600    900.61624    -11608984    604.65347    35.458818   0.87307104   -13.758953 
    6700    900.91616    -11607117    604.70967   -39.555453   -44.208464    -81.36813 
    6800    901.30214    -11606099    604.77361   -67.409479   -34.248036       16.676 
    6900    901.30679    -11606118    604.69675    63.811132    23.291231   -20.583445 
    7000    900.48816    -11607073    604.74688    24.060746    16.738924    25.978046 
    7100    899.62329    -11608394    604.77964   -30.898243    16.346358    26.334136 
    7200    898.78703    -11609334    604.71879    8.0439081   -36.485495   -66.849006 
    7300    899.57667    -11609402     604.7576   -37.102296   -4.2108531   -8.9583111 
    7400    899.87285    -11609051     604.7416   -6.4786106   -1.7568366    4.4415732 
    7500    900.67361    -11608755     604.7027    51.021632   0.98516743    23.200983 
    7600    900.63893    -11609021    604.74695    19.057341    62.937068   -12.983911 
    7700    899.87971    -11609848    604.75136    -11.81924    2.3916999    26.705344 
    7800    899.47095    -11610656    604.70212    9.3202342   -32.942882   -14.364497 
    7900    900.13183    -11611126    604.71597    -11.48295    15.557915   -39.979921 
    8000    899.77109    -11611529    604.72228   -18.746734   -20.720874    5.1192516 
    8100    899.52183    -11611815    604.70049    21.219896    11.682571   -2.6495184 
    8200    899.81434    -11611739    604.70806    12.162013     26.70682    6.0840296 
    8300    900.41904    -11611426    604.71501   -20.032035   -22.337511   -5.7707573 
    8400    900.70036    -11611306    604.71339   -11.401614   -29.933247   -47.165265 
    8500    899.88078    -11611581      604.738   -56.661849   -8.6250542    -5.709273 
    8600    899.84382    -11611871    604.66398    54.868944    11.046639    7.4622837 
    8700    899.90619    -11612109     604.6748    47.641928     40.92603    56.416863 
    8800     899.4661    -11612246    604.72577   -1.4656213    24.806124   -9.4518616 
    8900    899.66271    -11611978    604.72508   -50.531372   -30.843956   -23.090201 
    9000    900.40409    -11611533    604.68488    10.630693    -58.00967   -10.558318 
    9100    900.03181    -11611283    604.73577    3.1333862     45.79349   -19.808217 
    9200    900.37272    -11611181    604.76192     17.61659    40.042234    67.247103 
    9300    899.33952    -11611173    604.72013     14.12392   -16.932036   -8.7822593 
    9400    899.91406    -11610765    604.72517   -23.501901   -27.483381   -62.572692 
    9500     900.2121    -11610326    604.77215    -30.49185   -19.486601    10.593931 
    9600    899.48248    -11609952    604.75185    11.417668     29.80105   -5.4699549 
    9700    899.78543    -11609301    604.72786    47.580568    24.411258    31.128912 
    9800    900.32125    -11608547    604.75256    13.961465    8.9130566    19.494694 
    9900    900.53154    -11608122    604.76578   -1.4940164    8.8367204   -8.8711202 
   10000    900.63887    -11608146    604.76991    1.7072625    1.8838416   -36.348101 
Loop time of 4997.52 on 24 procs for 10000 steps with 3167201 atoms

Performance: 0.173 ns/day, 138.820 hours/ns, 2.001 timesteps/s
99.5% CPU use with 24 MPI tasks x no OpenMP threads

MPI task timing breakdown:
Section |  min time  |  avg time  |  max time  |%varavg| %total
---------------------------------------------------------------
Pair    | 3455.1     | 3977.4     | 4257.5     | 348.1 | 79.59
Neigh   | 30.986     | 39.906     | 45.424     |  56.1 |  0.80
Comm    | 119.81     | 414.96     | 956.59     |1110.8 |  8.30
Output  | 6.7159     | 6.7433     | 6.7941     |   0.8 |  0.13
Modify  | 442.94     | 487.42     | 516.62     |  81.8 |  9.75
Other   |            | 71.11      |            |       |  1.42

Nlocal:    131967 ave 132142 max 131767 min
Histogram: 3 0 3 2 2 3 4 2 2 3
Nghost:    38722.3 ave 39024 max 38326 min
Histogram: 2 1 1 0 3 8 2 1 4 2
Neighs:    6.32178e+06 ave 6.41017e+06 max 6.23267e+06 min
Histogram: 7 5 0 0 0 0 0 0 4 8

Total # of neighbors = 151722612
Ave neighs/atom = 47.9043
Neighbor list builds = 121
Dangerous builds = 0

unfix			1
fix				1 all nvt temp 900 300 0.1
run				30000
Per MPI rank memory allocation (min/avg/max) = 93.68 | 94.21 | 94.99 Mbytes
Step Temp TotEng Lx Pxx Pyy Pzz 
   10000    900.63887    -11608146    604.76991    1.7072625    1.8838416   -36.348101 
   10100    899.36894    -11608520    604.76991   -181.30735   -184.27821   -316.63365 
   10200    898.00779    -11609098    604.76991   -356.19479   -363.88451   -577.80986 
   10300    897.04901    -11609959    604.76991   -500.59044   -535.31043   -814.01728 
   10400    895.75411    -11611117    604.76991   -628.17394   -696.51174   -980.96759 
   10500     894.1529    -11612488    604.76991   -760.73329   -844.52359   -1128.2065 
   10600    891.95373    -11613980    604.76991   -884.38846    -1008.371   -1264.4934 
   10700    890.34642    -11615556    604.76991   -1009.5837   -1183.3089   -1447.3668 
   10800    888.63901    -11617262    604.76991   -1155.3187   -1353.8271    -1639.899 
   10900    885.76156    -11619047    604.76991   -1276.8529   -1492.6311   -1780.5328 
   11000    884.64321    -11620807    604.76991   -1431.9308   -1618.0998   -1973.6924 
   11100    882.27415    -11622699    604.76991   -1534.9391   -1727.4336   -2091.7096 
   11200    880.18531    -11624614    604.76991   -1655.4146   -1840.5955   -2238.7333 
   11300    878.51145    -11626532    604.76991   -1803.3959   -1979.1336   -2385.0394 
   11400    876.33116    -11628544    604.76991   -1958.9071   -2102.1746   -2532.5515 
   11500     874.5837    -11630568    604.76991    -2134.285    -2286.638   -2714.3773 
   11600    872.43245    -11632668    604.76991   -2322.0023   -2449.1106   -2858.3947 
   11700    870.07138    -11634747    604.76991   -2479.9937   -2569.8551   -2967.2746 
   11800    867.37167    -11636728    604.76991   -2609.6902   -2639.1842   -3025.4412 
   11900    865.33531    -11638676    604.76991   -2692.2772   -2750.5144   -3109.9889 
   12000    862.90826    -11640597    604.76991   -2743.6517   -2771.5885   -3160.2547 
   12100    861.09678    -11642450    604.76991   -2797.3921   -2815.9382   -3216.6137 
   12200    858.25311    -11644323    604.76991   -2794.6835   -2823.7713   -3210.8335 
   12300    856.63293    -11646095    604.76991   -2836.2678   -2850.3752   -3254.4872 
   12400    854.36117    -11647856    604.76991   -2866.7059   -2902.0968   -3254.0853 
   12500    852.92803    -11649635    604.76991   -2920.9474   -2941.6532   -3281.0865 
   12600    850.82583    -11651487    604.76991   -2934.4693   -2964.4712   -3234.8726 
   12700    848.77993    -11653362    604.76991   -2947.7708   -2986.7671   -3231.8786 
   12800    846.82561    -11655238    604.76991    -2978.946   -2992.3779   -3194.8243 
   12900    844.79381    -11657095    604.76991   -2977.0236   -2992.0535   -3185.9118 
   13000    843.02788    -11658969    604.76991   -2974.8327   -3010.8652   -3138.7063 
   13100    840.86695    -11660887    604.76991   -2983.7925   -3009.9933   -3098.8557 
   13200    838.98914    -11662797    604.76991   -3001.1739   -3007.3292   -3078.9565 
   13300    837.18514    -11664731    604.76991   -3009.6396   -3030.4844   -3041.1218 
   13400    834.48754    -11666650    604.76991   -2987.1239   -3022.4311   -2987.4237 
   13500    832.60862    -11668470    604.76991    -3010.595   -3031.6732   -2938.0924 
   13600    830.53725    -11670324    604.76991   -2979.5701   -3011.5063   -2831.1695 
   13700     828.3574    -11672156    604.76991   -2948.1278   -2986.5884   -2757.2641 
   13800    826.34385    -11674004    604.76991   -2938.5893    -2964.981   -2663.4657 
   13900    824.31149    -11675735    604.76991   -2904.8168   -2918.7604   -2536.8319 
   14000    822.84815    -11677530    604.76991   -2874.5468   -2903.4843   -2443.9411 
   14100    820.86467    -11679463    604.76991   -2840.6451   -2860.7535    -2338.679 
   14200    819.73184    -11681366    604.76991   -2811.0447   -2820.3312   -2205.7072 
   14300    817.50841    -11683442    604.76991   -2736.3065   -2801.1405   -2042.8763 
   14400    815.59296    -11685501    604.76991   -2647.5763    -2709.895   -1867.4674 
   14500    813.45334    -11687565    604.76991   -2515.1418    -2582.739   -1611.9033 
   14600    812.29748    -11689674    604.76991   -2435.5108    -2496.177   -1400.8327 
   14700    810.12462    -11691866    604.76991   -2275.7868   -2347.5734   -1078.3923 
   14800    808.79126    -11694127    604.76991   -2118.9527   -2184.3965   -773.66456 
   14900    806.91095    -11696444    604.76991    -1937.812   -2025.2348   -448.78172 
   15000    804.67358    -11698805    604.76991    -1785.638   -1892.7373   -122.86748 
   15100    803.60067    -11701198    604.76991      -1686.4    -1773.661    153.11832 
   15200     800.6205    -11703648    604.76991     -1544.67   -1608.5996    448.33921 
   15300    798.18544    -11706016    604.76991   -1435.8189   -1519.7313    661.99087 
   15400    796.35998    -11708346    604.76991   -1382.9847    -1488.772      798.123 
   15500    794.02294    -11710680    604.76991   -1336.0602   -1430.6846    931.72414 
   15600    791.70443    -11712934    604.76991   -1290.5627   -1396.3471    1068.7817 
   15700    789.23252    -11715090    604.76991    -1233.175   -1341.6181    1218.5452 
   15800    787.86017    -11717296    604.76991    -1223.903   -1320.0203    1334.3123 
   15900    785.27545    -11719524    604.76991   -1218.8761   -1273.2118    1439.4974 
   16000    782.33927    -11721570    604.76991   -1135.5992   -1200.5347    1619.8516 
   16100    781.02174    -11723610    604.76991   -1118.4929   -1192.3366    1729.0936 
   16200    778.57808    -11725611    604.76991   -1099.4214   -1134.8853    1833.9132 
   16300    776.67688    -11727619    604.76991   -1073.7995   -1099.6897    1951.8364 
   16400    774.60641    -11729642    604.76991   -1017.7117   -1048.5116    2069.1273 
   16500    772.32596    -11731586    604.76991    -961.7139   -1000.3897    2204.0368 
   16600    770.26577    -11733467    604.76991   -914.07262    -953.4941    2345.6705 
   16700    768.04252    -11735364    604.76991   -845.93774   -891.92075    2467.0513 
   16800    766.07448    -11737221    604.76991   -810.83305   -875.09503    2578.5545 
   16900    763.85978    -11738996    604.76991   -780.40029   -847.57759    2676.3879 
   17000    762.26567    -11740782    604.76991   -786.20825   -818.99556    2752.8924 
   17100    759.73858    -11742586    604.76991   -769.37168   -798.64797    2801.6978 
   17200    757.90009    -11744349    604.76991   -771.60406   -831.82623    2838.5616 
   17300    755.27873    -11746027    604.76991   -729.03321   -797.57168    2917.7239 
   17400    754.16129    -11747687    604.76991   -759.43068   -832.37087    2946.1771 
   17500    752.07446    -11749476    604.76991   -809.64189   -846.79365    2970.9275 
   17600    750.17273    -11751274    604.76991    -854.2106   -891.33434    2989.9423 
   17700    748.33963    -11753092    604.76991   -889.98364   -948.65621    2964.3639 
   17800    746.37269    -11754934    604.76991   -954.70169   -984.05991    2953.9303 
   17900    744.27601    -11756771    604.76991   -967.54319   -1019.5842    2965.5629 
   18000    742.12188    -11758604    604.76991   -1024.8894   -1059.8657    2945.4809 
   18100     740.7109    -11760458    604.76991   -1103.6665   -1134.8674    2896.6251 
   18200    738.56624    -11762369    604.76991   -1143.7937   -1187.4973    2873.1999 
   18300    736.50354    -11764259    604.76991   -1227.3603   -1244.7067    2818.7463 
   18400    734.09531    -11766087    604.76991   -1273.5668   -1295.5679     2763.858 
   18500     732.7697    -11767900    604.76991   -1354.2393   -1363.1892    2738.1115 
   18600    730.35084    -11769820    604.76991   -1425.4077   -1422.3153    2694.0098 
   18700    728.67559    -11771697    604.76991   -1535.2196   -1510.3253     2626.932 
   18800    726.48954    -11773591    604.76991   -1632.2408   -1589.9225    2523.6378 
   18900    724.00421    -11775383    604.76991   -1729.1345   -1687.6244    2412.2009 
   19000    722.03527    -11777139    604.76991   -1837.5873   -1776.7027    2300.4355 
   19100    720.24692    -11778901    604.76991   -1974.5145   -1897.9668    2176.5437 
   19200    718.04214    -11780652    604.76991   -2097.2631   -2047.1238    2007.2047 
   19300     715.9233    -11782348    604.76991   -2281.4512   -2195.2593    1800.2902 
   19400    713.76906    -11784034    604.76991   -2478.4719   -2383.5726    1543.1959 
   19500      711.166    -11785675    604.76991   -2660.1608   -2577.0009    1281.7661 
   19600    709.53715    -11787127    604.76991   -2883.3015   -2783.8359    1005.2138 
   19700    707.11659    -11788655    604.76991   -3098.8746   -2978.5993    720.49601 
   19800     705.1411    -11790069    604.76991   -3332.3509   -3202.7152    398.91091 
   19900    702.91148    -11791435    604.76991   -3536.2306   -3395.8759    138.92687 
   20000    700.89381    -11792803    604.76991   -3703.0867   -3586.4613   -100.12305 
   20100    698.66806    -11794046    604.76991   -3846.1955    -3719.771   -288.04968 
   20200    697.45835    -11795295    604.76991   -4015.2532   -3899.9778   -485.61108 
   20300    695.23746    -11796754    604.76991   -4143.5367   -4042.3271   -631.03167 
   20400     693.8243    -11798208    604.76991   -4283.0127   -4192.4112   -770.70741 
   20500     691.5129    -11799757    604.76991   -4389.4967   -4293.3239   -905.16423 
   20600    690.17779    -11801332    604.76991   -4527.6468   -4450.0335   -1071.4557 
   20700    687.90322    -11803006    604.76991   -4650.7365   -4574.4744   -1228.9036 
   20800    685.85892    -11804603    604.76991   -4788.7915   -4664.2419   -1363.1419 
   20900    684.36077    -11806239    604.76991   -4904.7983   -4797.9667   -1504.4203 
   21000    681.98267    -11807958    604.76991   -5017.7791   -4891.3775   -1615.9397 
   21100    680.53327    -11809638    604.76991   -5141.7117   -5011.4323   -1738.0411 
   21200    678.16699    -11811377    604.76991   -5244.9991   -5108.3393   -1854.3609 
   21300    676.14124    -11813062    604.76991   -5374.0514   -5227.7787   -1997.2214 
   21400    674.37309    -11814714    604.76991   -5485.5086   -5377.8751   -2132.1298 
   21500    672.27929    -11816420    604.76991   -5573.9079   -5474.6873   -2232.4447 
   21600    670.53319    -11818158    604.76991   -5692.8336   -5611.9982    -2367.252 
   21700    668.26627    -11819844    604.76991   -5791.0241   -5706.6125   -2457.8502 
   21800    666.65995    -11821586    604.76991   -5882.5636   -5808.3273   -2543.0813 
   21900    664.23099    -11823329    604.76991   -5925.8953   -5855.0519    -2588.645 
   22000    662.20867    -11824993    604.76991   -5990.7137   -5934.2503   -2628.8058 
   22100    660.19036    -11826636    604.76991   -6041.3182   -5983.2375   -2666.0379 
   22200    658.29545    -11828323    604.76991   -6099.7329   -6075.5486   -2702.5548 
   22300    656.55633    -11830017    604.76991   -6172.0433   -6147.7991   -2754.0309 
   22400    654.76336    -11831760    604.76991   -6263.9904   -6227.2367   -2814.1376 
   22500    651.99324    -11833487    604.76991   -6271.4885   -6256.0368      -2825.6 
   22600    650.93328    -11835236    604.76991   -6357.5589    -6352.592   -2854.1939 
   22700    648.60283    -11836990    604.76991   -6398.8592   -6403.2987   -2847.8444 
   22800    646.36515    -11838765    604.76991    -6412.721    -6436.366   -2844.6068 
   22900    644.77785    -11840539    604.76991   -6459.2404    -6486.893   -2852.8431 
   23000    642.93504    -11842306    604.76991   -6487.6801   -6535.8777   -2845.5558 
   23100    640.39112    -11844109    604.76991   -6479.4915   -6536.9836   -2824.4108 
   23200    638.48947    -11845824    604.76991   -6475.4689   -6559.3777   -2804.1048 
   23300    636.85157    -11847568    604.76991     -6483.53   -6603.1468   -2772.6517 
   23400    635.01304    -11849380    604.76991   -6492.9374   -6601.9185   -2733.5228 
   23500    632.64062    -11851211    604.76991   -6461.1963   -6586.9501   -2648.1881 
   23600    631.27398    -11852994    604.76991   -6477.3305   -6606.4385   -2598.4674 
   23700    628.79455    -11854858    604.76991   -6437.3299   -6586.0129   -2486.5652 
   23800    627.49727    -11856721    604.76991    -6422.652   -6582.7849   -2381.2646 
   23900    624.83889    -11858623    604.76991   -6346.7141   -6502.4958   -2203.8376 
   24000    623.13117    -11860478    604.76991   -6273.4102   -6454.0845    -2038.207 
   24100    621.09268    -11862325    604.76991    -6169.534   -6345.8158   -1826.3712 
   24200    619.11362    -11864226    604.76991   -6062.5685   -6238.4622   -1589.4854 
   24300    617.35343    -11866105    604.76991   -5961.7296   -6130.5387   -1343.4191 
   24400    615.12474    -11868025    604.76991   -5813.0764   -6009.2764   -1059.9845 
   24500    613.74776    -11869969    604.76991   -5709.4406   -5886.6593   -806.89891 
   24600    611.57398    -11871948    604.76991   -5583.2933   -5757.8713   -529.53058 
   24700    610.05848    -11873947    604.76991   -5495.3636   -5675.9777   -294.80834 
   24800    607.06525    -11875962    604.76991   -5358.8439   -5532.3116   -33.147909 
   24900    605.55211    -11877884    604.76991   -5293.0314   -5454.8212    151.91907 
   25000    603.40489    -11879878    604.76991   -5224.3046   -5387.0904    302.29116 
   25100    601.57233    -11881855    604.76991   -5177.6396   -5335.8091    457.98434 
   25200     599.3462    -11883815    604.76991   -5130.5744   -5277.7657    601.80138 
   25300    597.66194    -11885781    604.76991   -5109.3472   -5262.7682    738.95555 
   25400    595.53038    -11887804    604.76991   -5071.5346   -5214.2883    869.88781 
   25500    593.38694    -11889779    604.76991   -5046.9705   -5164.0348    1000.2596 
   25600    591.62661    -11891767    604.76991   -5018.5636   -5149.4104    1117.5979 
   25700    589.82236    -11893820    604.76991   -5000.7745   -5132.2683    1213.8255 
   25800    587.13028    -11895808    604.76991   -4960.5277   -5068.2621    1356.9906 
   25900     585.4399    -11897758    604.76991   -4954.0065   -5029.4125    1488.2419 
   26000    582.80468    -11899708    604.76991   -4908.4975   -4981.8993    1621.9727 
   26100    580.66245    -11901562    604.76991   -4857.3623   -4925.4689    1760.6442 
   26200    578.81224    -11903412    604.76991   -4819.0141   -4904.2468    1866.5575 
   26300    576.24517    -11905229    604.76991   -4784.4381   -4848.8379     1989.646 
   26400    574.51207    -11906992    604.76991   -4742.1398   -4810.2099    2098.0484 
   26500    572.27063    -11908769    604.76991   -4710.2289   -4762.3017    2213.8521 
   26600    570.50195    -11910472    604.76991   -4688.9087   -4758.8671     2289.654 
   26700    568.29802    -11912246    604.76991   -4674.1918    -4740.243    2364.0933 
   26800    565.99014    -11913945    604.76991   -4673.5611   -4712.5133    2433.1542 
   26900    564.37653    -11915626    604.76991   -4697.7821   -4711.4098    2468.1836 
   27000    562.29257    -11917355    604.76991    -4703.749   -4713.2747    2525.6719 
   27100    560.50561    -11919075    604.76991   -4720.3041   -4708.4568    2557.4236 
   27200    558.15341    -11920809    604.76991   -4713.8502   -4705.5121    2606.9519 
   27300      556.747    -11922537    604.76991   -4752.3156   -4739.1446    2617.5153 
   27400    554.57244    -11924335    604.76991   -4771.3937   -4761.1981    2640.4767 
   27500    552.63878    -11926100    604.76991   -4803.2459   -4790.8375    2642.0344 
   27600    550.62064    -11927864    604.76991   -4861.8441   -4836.8693    2640.1922 
   27700    548.57222    -11929653    604.76991   -4900.2492   -4864.4748    2624.8972 
   27800    546.73986    -11931431    604.76991   -4974.6825   -4909.7872    2598.4772 
   27900    544.79554    -11933205    604.76991   -5029.5797   -4986.4547    2585.7085 
   28000    542.47258    -11935001    604.76991   -5070.5624    -5030.232     2542.455 
   28100    540.52681    -11936746    604.76991   -5136.8523   -5109.9124    2492.4918 
   28200    538.58594    -11938502    604.76991   -5245.7745   -5195.5288    2399.5395 
   28300    536.64443    -11940249    604.76991    -5357.921   -5289.0263    2287.0979 
   28400    534.61959    -11942026    604.76991   -5462.2832   -5418.9026    2164.2895 
   28500    532.11995    -11943756    604.76991   -5554.6382   -5500.4191    2049.8785 
   28600     530.4254    -11945403    604.76991   -5679.2862   -5640.4841    1901.7627 
   28700    528.26637    -11947119    604.76991   -5829.3367   -5811.0686    1726.3525 
   28800    526.17815    -11948777    604.76991   -5972.8829   -5956.7696    1518.7719 
   28900    524.13849    -11950414    604.76991    -6140.068   -6118.7195    1313.5508 
   29000    521.96068    -11952004    604.76991   -6300.5347   -6292.7313    1092.5548 
   29100    519.77166    -11953596    604.76991   -6474.3917   -6490.1514    847.98689 
   29200    518.08276    -11955110    604.76991   -6656.9818   -6674.8408    596.05335 
   29300    515.67825    -11956689    604.76991   -6812.6978   -6826.3025    404.24055 
   29400    513.82713    -11958199    604.76991   -6986.7272    -7002.634    186.57898 
   29500    511.98757    -11959720    604.76991   -7139.3979   -7160.9435   -11.078641 
   29600    510.03131    -11961296    604.76991    -7290.712   -7305.1865   -182.72103 
   29700    507.99415    -11962863    604.76991   -7408.2973   -7432.8465   -335.20175 
   29800    506.06262    -11964423    604.76991   -7531.3041   -7558.8652    -467.3835 
   29900    504.20148    -11966028    604.76991   -7652.7137   -7683.6729   -602.81625 
   30000    502.15859    -11967615    604.76991   -7762.7981    -7795.156    -720.7438 
   30100    500.29472    -11969232    604.76991   -7886.1641   -7931.0542   -848.42131 
   30200    498.25088    -11970837    604.76991   -7996.8446   -8040.6264   -978.26856 
   30300    496.13196    -11972428    604.76991   -8105.8802   -8147.7046   -1098.8238 
   30400    494.57539    -11974031    604.76991   -8248.0969   -8276.7473   -1237.8656 
   30500    492.31801    -11975687    604.76991   -8358.5935   -8387.8314   -1356.8292 
   30600    490.19023    -11977328    604.76991   -8460.9955   -8483.9618   -1484.7367 
   30700    488.56908    -11978905    604.76991   -8576.0035   -8601.2548    -1612.603 
   30800    486.42613    -11980563    604.76991    -8688.621   -8695.6852   -1731.1251 
   30900    484.38795    -11982204    604.76991   -8798.8596   -8806.8259   -1848.5487 
   31000    482.61813    -11983839    604.76991   -8897.2299   -8914.4332   -1962.0398 
   31100    480.56532    -11985477    604.76991   -8992.2008   -9015.0992   -2068.7384 
   31200     478.2328    -11987123    604.76991    -9065.886   -9093.8241   -2135.4958 
   31300     476.6371    -11988746    604.76991   -9144.5859    -9169.871   -2210.8104 
   31400    474.36569    -11990392    604.76991   -9201.7092   -9235.9848    -2259.998 
   31500    472.67841    -11992032    604.76991     -9287.09    -9295.972   -2311.1298 
   31600    470.50739    -11993679    604.76991   -9338.2561   -9350.3009   -2329.2835 
   31700    468.74562    -11995325    604.76991   -9397.9058   -9407.1181   -2379.6224 
   31800    466.78136    -11997019    604.76991   -9442.1599   -9463.9923    -2402.886 
   31900    464.88571    -11998695    604.76991    -9506.419   -9524.6326    -2449.649 
   32000    462.72299    -12000396    604.76991   -9551.3225   -9562.2038   -2464.4996 
   32100    461.03532    -12002088    604.76991   -9608.5518   -9606.1141   -2491.8856 
   32200    458.98652    -12003820    604.76991   -9652.6435   -9640.6363   -2499.0626 
   32300    456.99164    -12005572    604.76991   -9679.0822     -9685.21   -2503.7253 
   32400    454.93569    -12007284    604.76991   -9704.9031   -9689.5565   -2474.8015 
   32500    453.31992    -12009039    604.76991   -9732.6824   -9718.6511   -2451.6296 
   32600    450.93216    -12010805    604.76991   -9764.5806   -9723.3066     -2422.22 
   32700     449.2047    -12012489    604.76991   -9786.8899   -9732.9186   -2388.4473 
   32800    447.00595    -12014261    604.76991    -9782.981   -9724.2289   -2330.7361 
   32900    445.21758    -12015995    604.76991   -9778.5582   -9708.9661   -2257.5812 
   33000     442.9321    -12017759    604.76991   -9759.6152   -9680.5902   -2160.3262 
   33100    441.04379    -12019474    604.76991   -9721.4667   -9644.9711   -2040.1724 
   33200     439.2213    -12021223    604.76991   -9679.5305   -9592.1682     -1907.66 
   33300     437.1625    -12022974    604.76991   -9621.4567   -9526.4343   -1766.2959 
   33400    435.36429    -12024735    604.76991   -9570.4002   -9459.5071   -1597.6325 
   33500    433.40501    -12026522    604.76991   -9492.7775   -9384.3745   -1417.0209 
   33600    431.30941    -12028315    604.76991   -9398.8824   -9291.2884   -1210.1437 
   33700    429.43402    -12030112    604.76991   -9316.1426    -9205.458   -1015.2247 
   33800    427.59815    -12031904    604.76991   -9204.1851   -9120.4633   -795.75727 
   33900    425.43752    -12033730    604.76991   -9099.4571    -9020.724   -575.15019 
   34000    423.97909    -12035555    604.76991   -9028.0067   -8954.9791   -398.64407 
   34100    421.33677    -12037410    604.76991   -8923.1344   -8843.7227   -194.02841 
   34200    419.84016    -12039243    604.76991   -8877.3955   -8808.6079   -38.584293 
   34300    417.82039    -12041113    604.76991   -8829.0119    -8773.413    93.678608 
   34400    415.22821    -12042944    604.76991    -8762.729   -8717.0518    241.83323 
   34500    413.75991    -12044756    604.76991    -8736.183   -8711.0346    340.76305 
   34600    411.46484    -12046582    604.76991   -8703.4494   -8679.8331    454.40566 
   34700    409.41093    -12048396    604.76991    -8662.746   -8660.0746    556.54021 
   34800    407.46974    -12050211    604.76991   -8631.0191   -8646.5126    673.51876 
   34900    405.60153    -12052008    604.76991    -8611.545   -8629.9388     775.7773 
   35000    403.16305    -12053827    604.76991   -8567.6735    -8583.045    915.94337 
   35100    401.33989    -12055593    604.76991   -8531.3804   -8549.6391    1032.7576 
   35200     399.5703    -12057377    604.76991   -8509.7817   -8515.8826    1138.9311 
   35300    397.34102    -12059200    604.76991   -8466.8241   -8492.6632    1259.6468 
   35400      395.263    -12060976    604.76991   -8430.5558   -8464.8344    1380.8174 
   35500    393.32536    -12062747    604.76991   -8409.2195   -8462.5671    1475.4327 
   35600    391.14363    -12064523    604.76991   -8385.8111   -8438.7375    1570.2513 
   35700    389.20119    -12066265    604.76991   -8359.5782   -8429.0699    1662.0831 
   35800    387.05528    -12068000    604.76991   -8342.5926   -8417.3977    1755.0746 
   35900     385.1849    -12069737    604.76991   -8356.7083   -8413.7648    1818.7868 
   36000    382.95322    -12071442    604.76991   -8343.2936   -8405.1364     1893.558 
   36100    380.98788    -12073146    604.76991   -8348.2933   -8414.2974    1953.8181 
   36200    379.02427    -12074848    604.76991   -8360.6246   -8435.8001     1993.125 
   36300    376.93881    -12076541    604.76991   -8372.9819    -8449.813     2014.947 
   36400     374.7575    -12078232    604.76991   -8393.3647    -8456.449    2043.8717 
   36500    372.99994    -12079868    604.76991   -8422.4842   -8480.2379    2071.8867 
   36600    370.84813    -12081543    604.76991   -8434.4368   -8485.3958    2120.5933 
   36700    369.13519    -12083231    604.76991   -8471.0423   -8513.7632    2129.4296 
   36800    367.06378    -12084923    604.76991   -8504.1609   -8543.9733    2126.1459 
   36900    364.88562    -12086605    604.76991   -8540.7797   -8585.4178    2126.4797 
   37000     363.2378    -12088291    604.76991   -8598.2274   -8637.1966     2097.322 
   37100    361.15117    -12090006    604.76991   -8653.9335   -8699.4399    2072.4245 
   37200    359.10548    -12091698    604.76991   -8713.4749   -8762.1854    2036.0323 
   37300    357.06535    -12093401    604.76991   -8778.2573   -8817.0517    1998.0071 
   37400    355.34784    -12095089    604.76991   -8863.4753   -8913.6511    1933.5092 
   37500    352.98586    -12096805    604.76991   -8938.7634   -8979.7389    1873.2586 
   37600    351.17053    -12098473    604.76991   -9031.4647    -9070.143     1781.109 
   37700    349.22095    -12100156    604.76991    -9146.464    -9186.548    1672.2598 
   37800    346.99031    -12101852    604.76991   -9257.1831   -9289.5206    1552.0673 
   37900    344.75301    -12103501    604.76991   -9379.1642   -9412.2596    1407.2965 
   38000     343.1419    -12105117    604.76991   -9533.9001   -9556.2597    1239.4944 
   38100    340.82143    -12106771    604.76991   -9658.1767   -9678.5919    1094.0784 
   38200    338.78552    -12108398    604.76991   -9806.8959   -9813.5804    931.53951 
   38300    336.87383    -12109999    604.76991   -9960.0565   -9972.5434    738.86794 
   38400    334.88878    -12111613    604.76991    -10110.72   -10103.974    575.17614 
   38500    332.78297    -12113223    604.76991   -10254.007   -10252.247    396.08061 
   38600     330.9029    -12114810    604.76991   -10411.886   -10404.137    224.99005 
   38700    328.89341    -12116426    604.76991   -10541.059   -10524.116    84.690724 
   38800    326.83872    -12118019    604.76991   -10664.147   -10636.971   -56.746487 
   38900    324.91643    -12119628    604.76991    -10780.65   -10752.231   -198.33298 
   39000    322.91318    -12121223    604.76991    -10876.24   -10847.784   -292.91568 
   39100    321.16702    -12122836    604.76991    -10979.69   -10950.477   -396.26297 
   39200    319.04727    -12124472    604.76991   -11070.246   -11047.044   -483.97051 
   39300    316.92103    -12126072    604.76991   -11166.201     -11132.8   -572.84327 
   39400    314.97488    -12127663    604.76991   -11271.533   -11242.138   -683.71448 
   39500    313.20751    -12129276    604.76991    -11376.01   -11344.382   -799.74049 
   39600    311.09462    -12130895    604.76991   -11473.778   -11442.016   -898.68135 
   39700    309.11333    -12132513    604.76991   -11587.123   -11558.085   -1019.3243 
   39800    307.15393    -12134127    604.76991   -11707.868   -11676.076   -1148.0397 
   39900    304.93244    -12135727    604.76991   -11807.162   -11770.978   -1244.2541 
   40000    303.29708    -12137325    604.76991   -11915.665   -11883.017   -1355.2774 
Loop time of 14027.2 on 24 procs for 30000 steps with 3167201 atoms

Performance: 0.185 ns/day, 129.881 hours/ns, 2.139 timesteps/s
99.5% CPU use with 24 MPI tasks x no OpenMP threads

MPI task timing breakdown:
Section |  min time  |  avg time  |  max time  |%varavg| %total
---------------------------------------------------------------
Pair    | 10807      | 11727      | 12452      | 369.5 | 83.60
Neigh   | 66.886     | 78.762     | 86.334     |  53.4 |  0.56
Comm    | 476.65     | 1224.6     | 2174.1     |1175.9 |  8.73
Output  | 20.394     | 20.456     | 20.546     |   0.8 |  0.15
Modify  | 709.42     | 777.7      | 828.18     | 106.7 |  5.54
Other   |            | 198.6      |            |       |  1.42

Nlocal:    131967 ave 132600 max 131534 min
Histogram: 2 3 0 5 8 5 0 0 0 1
Nghost:    38984.1 ave 40191 max 38343 min
Histogram: 4 1 7 2 6 2 1 0 0 1
Neighs:    6.19384e+06 ave 6.2957e+06 max 6.09224e+06 min
Histogram: 3 8 1 0 0 0 0 2 4 6

Total # of neighbors = 148652261
Ave neighs/atom = 46.9349
Neighbor list builds = 242
Dangerous builds = 0
unfix			1

fix				1 all npt temp 300 300 0.1 x 1 1 0.5 y 1 1 0.5 z 1 1 0.5
run				10000
Per MPI rank memory allocation (min/avg/max) = 93.69 | 94.21 | 94.99 Mbytes
Step Temp TotEng Lx Pxx Pyy Pzz 
   40000    303.29708    -12137325    604.76991   -11915.665   -11883.017   -1355.2774 
   40100    309.30147    -12141410    601.75588   -2384.8303   -2370.9531    3801.2857 
   40200    306.67507    -12143435    600.59543    -1059.462   -1045.1067      1954.55 
   40300    305.35163    -12144961    599.92342   -386.12786   -391.96502    751.35813 
   40400    304.36066    -12146243    599.59383   -120.11985   -121.78778    161.21262 
   40500    302.42737    -12147433    599.47146   -17.459646   -18.481538    7.6196981 
   40600     301.5764    -12148459    599.44404    2.9693335   0.86555165   -3.0619753 
   40700    300.61589    -12149271    599.43869   -3.9437626   -5.5227032   -16.424626 
   40800    299.64237    -12149908    599.43573    2.4205044    -1.513797   -6.0282933 
   40900    299.84812    -12150212    599.44406    8.7113472   -2.1726175    1.7390809 
   41000    299.45482    -12150195     599.4516   -3.4638574   0.97603569   -11.080563 
   41100    299.85614    -12149849    599.46096    7.6997233   -5.8960658   -1.2310916 
   41200     300.5023    -12149532    599.47959    2.3732286    1.7507199   -2.7873621 
   41300     300.0595    -12149500    599.48654   -4.7415286   -2.9951354   -5.2065113 
   41400    300.11048    -12149644    599.47512    5.7511538   -1.2914264   -1.4338789 
   41500    300.14996    -12149869    599.47994   -0.9127615     3.362723   -1.1554945 
   41600    299.64003    -12150073    599.48744    4.2965182   -5.2373349   -6.6829156 
   41700    299.70496    -12150078    599.49866    1.6298692     4.081964   -1.2554749 
   41800    300.09089    -12149877    599.51623    1.7592345  -0.60235143  -0.20073508 
   41900    300.20074    -12149712    599.52257    4.6625793   -1.1711058   -4.9878957 
   42000    300.00756    -12149704    599.53722   -5.5429443  0.034459657    7.0494948 
   42100    300.02407    -12149724    599.51901    5.1906888  0.077288793    -8.150757 
   42200    300.10136    -12149806    599.53147   -2.2771886   0.65190446    3.9525047 
   42300    300.00479    -12149952    599.52245    5.4787688    1.5177307  -0.77655421 
   42400    299.53556    -12150030    599.54006   -4.1031125  -0.44233474    2.1253622 
   42500    299.98834    -12149873    599.53198    5.9242116   0.67274062   -1.8618435 
   42600    300.19495    -12149675    599.54331  0.089326192    2.5246584    5.1046071 
   42700    299.99263    -12149564    599.55483   -2.3234217    2.9494434   -1.0692107 
   42800    300.36311    -12149522    599.53396    8.8997425   -3.5258839   -1.2513628 
   42900    300.14309    -12149709    599.55579    -11.67853    8.3841065    8.8773985 
   43000    299.60968    -12149939     599.5144    18.858453    -8.450383   -10.538795 
   43100    299.90249    -12149935    599.56001   -19.944337    13.447027    9.8268989 
   43200    299.88426    -12149829    599.51225    23.115173   -14.949105    -3.972102 
   43300    300.08192    -12149646    599.56599   -20.129049    21.172276     1.581029 
   43400    300.25736    -12149520    599.51925    16.018953   -21.805949    6.6319724 
   43500    300.15911    -12149609    599.54351   -7.1691476    21.613472   -9.1614039 
   43600    299.88975    -12149805     599.5211    4.5219225   -17.895992    15.487993 
   43700    299.89518    -12149906    599.53132    1.7199802    18.404363   -13.467715 
   43800    300.02321    -12149927    599.52394    0.9554699   -8.9754303    13.287564 
   43900    299.79307    -12149907    599.53375   -2.2035034    1.3553143    3.7916154 
   44000    300.17389    -12149778    599.50999    8.1162974    12.824962   -17.532529 
   44100     300.0907    -12149768    599.52156   -6.9864378   -21.700073    29.249297 
   44200    299.92657    -12149833    599.51541    1.3962899    28.267991   -24.506426 
   44300    299.99754    -12149860    599.49432    11.871238   -23.278235    11.579186 
   44400    300.11627    -12149886    599.53542   -21.146931    17.860814     9.920078 
   44500    299.85468    -12149959    599.47489    32.816048   -9.6196437   -22.342273 
   44600    299.92831    -12149962     599.5505   -32.439595    9.0384678    27.466876 
   44700        300.1    -12149892    599.47619    29.971619     -10.2644    -10.66023 
   44800    299.91746    -12149852    599.52882   -22.043561    21.123363   0.42434454 
   44900    299.92194    -12149783    599.47075    17.957684   -26.050958    13.752868 
   45000    300.21417    -12149686    599.51645   -11.569135    27.469509   -15.591734 
   45100    300.02361    -12149740     599.4783    10.943439   -21.996711    9.8962252 
   45200    300.06687    -12149855    599.50105   -12.649986    20.790634   -3.7088135 
   45300    299.81217    -12149947    599.45068     19.56424    -13.21641   -4.4017314 
   45400    299.98114    -12149924      599.489   -18.833007    9.3488325    14.843263 
   45500    300.02636    -12149874    599.43733    21.534144   -0.8269445   -14.033642 
   45600    300.04111    -12149790    599.47197   -12.016584    1.7078476    18.404099 
   45700    300.03448    -12149733    599.45451    3.8873981   -2.5068764   -4.5706242 
   45800    300.01956    -12149746    599.44552    8.4703744    12.683326   -15.205588 
   45900    300.05305    -12149737     599.4591   -13.104693    -17.73724    35.793245 
   46000     299.8207    -12149730    599.42502    15.650385    19.667816   -36.725591 
   46100     300.0346    -12149676    599.44753   -8.7796562    -12.67827    28.896913 
   46200    300.00472    -12149613    599.43752    4.7537732    2.4822632    -7.160667 
   46300    300.04529    -12149558    599.44812    2.2801765     13.24159   -12.518711 
   46400    300.15834    -12149557    599.44356   -3.9748045   -18.519711    24.308041 
   46500    299.99141    -12149632    599.43816    4.0806341    21.500751   -22.155874 
   46600    299.98682    -12149744    599.43601    1.9720465   -15.983547    17.087692 
   46700    299.90581    -12149846    599.43487    -3.352264    9.8475648   -5.4857237 
   46800    299.84777    -12149840    599.42826    12.328268    1.0291301   -7.8472357 
   46900    300.06411    -12149755    599.45575   -17.504132   -5.9788927    22.098634 
   47000    300.10232    -12149727    599.42189     20.17096     9.978261   -23.745667 
   47100    300.03094    -12149764    599.45636   -13.757076   -6.0448925    20.940565 
   47200    300.06497    -12149841    599.43384     8.078707   0.52031961   -6.6029347 
   47300    299.86635    -12149946    599.44579    3.1893242    11.623422   -6.0573845 
   47400    299.95812    -12149956    599.45524   -10.923408    -17.69847     27.31734 
   47500    300.01041    -12149930    599.44109    18.915253    23.616392   -31.591914 
   47600    299.86346    -12149912    599.47153   -15.620788   -17.452309    28.684604 
   47700    300.04425    -12149798    599.45807    8.5338491    4.6842141   -1.7158834 
   47800    299.98871    -12149705    599.46649    4.8226581    18.574034   -23.171318 
   47900    300.34394    -12149672     599.4803   -12.248086   -32.418043    45.598024 
   48000    299.83833    -12149783    599.46178    17.812641    35.340964   -45.595345 
   48100     299.8944    -12149874    599.48914    -14.05453   -23.649705     28.26957 
   48200    299.89796    -12149904    599.47286    5.1570653    12.043406   -3.2643506 
   48300    299.89516    -12149823    599.46795    7.6482971    0.7274564   -10.989045 
   48400    300.08818    -12149693    599.49285   -11.277452   -8.6035044    23.531312 
   48500    300.29602    -12149656    599.47395    11.985751     16.16994   -21.363017 
   48600    300.02781    -12149777    599.48405   -2.8906695   -13.419946     16.45092 
   48700    299.94901    -12149917    599.49133  -0.41063231    11.200203   -0.9957276 
   48800    299.70315    -12149980    599.48525    6.4034525   -0.5859919   -12.405377 
   48900    299.95796    -12149859    599.49992   -6.6829694   -5.8880089    23.430971 
   49000    300.24622    -12149745    599.49219    7.7915596    12.076389   -23.119286 
   49100    299.89486    -12149786    599.50139  -0.69829785   -12.419276    15.065819 
   49200    300.06475    -12149803    599.52178   -7.9583993    12.966907    6.9356929 
   49300    299.96431    -12149797    599.48204     22.37874   -1.4983973   -32.278618 
   49400     300.1597    -12149781    599.53971   -30.665046   -3.0971182    56.918732 
   49500    299.86245    -12149854    599.46075    35.079904    3.1168793   -57.276639 
   49600    300.01071    -12149875    599.53938   -24.594196    5.7764526    35.565063 
   49700    299.89896    -12149893    599.48123    13.983052   -11.340692   -5.0246806 
   49800    299.96874    -12149855    599.50491   -1.8447262    18.054686   -15.524997 
   49900    300.01574    -12149756    599.50107    1.9784313   -18.203133    28.179212 
   50000    300.21211    -12149708     599.5114   -4.2462992    18.021151    -21.33213 
Loop time of 4845.1 on 24 procs for 10000 steps with 3167201 atoms

Performance: 0.178 ns/day, 134.586 hours/ns, 2.064 timesteps/s
99.5% CPU use with 24 MPI tasks x no OpenMP threads

MPI task timing breakdown:
Section |  min time  |  avg time  |  max time  |%varavg| %total
---------------------------------------------------------------
Pair    | 3608.2     | 3880.9     | 4180.5     | 245.9 | 80.10
Neigh   | 15.496     | 17.914     | 20.566     |  28.5 |  0.37
Comm    | 76.526     | 387.37     | 661        | 790.1 |  8.00
Output  | 6.6146     | 6.6396     | 6.667      |   0.5 |  0.14
Modify  | 462.14     | 481.59     | 506.49     |  51.6 |  9.94
Other   |            | 70.7       |            |       |  1.46

Nlocal:    131967 ave 132670 max 131489 min
Histogram: 2 2 3 7 2 5 2 0 0 1
Nghost:    39190 ave 39718 max 38614 min
Histogram: 3 1 0 9 0 0 3 2 2 4
Neighs:    6.2674e+06 ave 6.37581e+06 max 6.17704e+06 min
Histogram: 7 5 0 0 0 0 1 4 5 2

Total # of neighbors = 150417669
Ave neighs/atom = 47.4923
Neighbor list builds = 54
Dangerous builds = 0

unfix			1
fix				1 all nvt temp 300 300 0.1
fix				2 all deform 1 x erate 0.0001 y erate -0.00003 units box remap x
run				1000000
Per MPI rank memory allocation (min/avg/max) = 93.69 | 94.21 | 94.99 Mbytes
Step Temp TotEng Lx Pxx Pyy Pzz 
   50000    300.21211    -12149708     599.5114   -4.2462992    18.021151    -21.33213 
   50100    299.97188    -12149783     599.5174   -45.353213   -14.178168   -47.777933 
   50200    299.99586    -12149851    599.52339   -74.053094    -41.93685   -93.041599 
   50300    299.80156    -12149875    599.52939    -133.1961   -96.721532   -164.89902 
   50400    299.97669    -12149821    599.53539   -218.58274   -176.03257   -285.95943 
   50500    299.86799    -12149770    599.54138   -275.41774   -243.40621    -381.6426 
   50600    299.86297    -12149677    599.54738   -340.92269   -303.08142   -470.43871 
   50700    300.15929    -12149574    599.55337   -410.80409   -351.81576    -558.4057 
   50800    299.96534    -12149567    599.55937   -444.12233    -375.4281   -597.14692 
   50900    299.93345    -12149583    599.56536   -488.35884   -406.56811   -658.62672 
   51000    300.13457    -12149602    599.57136   -553.81844   -463.66962   -746.09672 
   51100    299.63195    -12149651    599.57735   -594.71246   -510.60007   -814.06766 
   51200    300.10901    -12149539    599.58335   -654.07469   -560.91031   -891.45004 
   51300    299.96836    -12149480    599.58934   -676.31065   -581.41594   -923.34784 
   51400    299.93995    -12149481    599.59534   -696.49797   -595.18805   -940.40341 
   51500    300.26314    -12149473    599.60133   -723.79041   -618.14718   -970.18465 
   51600    299.76348    -12149559    599.60733   -728.25258   -631.95252   -978.13128 
   51700    299.98691    -12149587    599.61332   -757.00167   -647.98877    -991.3553 
   51800    299.95981    -12149521    599.61932   -739.22755    -622.6848   -965.82253 
   51900    300.03938    -12149411    599.62531   -698.55714   -583.54783   -879.19786 
   52000    300.16942    -12149365    599.63131   -667.08891   -541.81802   -829.76557 
   52100    299.90314    -12149405     599.6373   -644.08773   -520.14057   -780.63786 
   52200    299.86417    -12149511     599.6433   -627.46527   -499.77152   -747.13809 
   52300    299.88422    -12149605    599.64929   -601.97199   -463.04385    -686.4292 
   52400    299.79072    -12149531    599.65529   -562.61632   -415.85752   -614.03131 
   52500    300.03373    -12149418    599.66128   -540.92856   -390.86784   -573.75867 
   52600    300.11492    -12149362    599.66728   -528.19254   -378.70473   -542.19881 
   52700    299.98061    -12149376    599.67327   -527.58787   -370.85695   -531.52462 
   52800    299.95007    -12149471    599.67927   -536.74786   -379.55997   -527.05672 
   52900    299.93044    -12149585    599.68526    -552.9313   -381.78501   -531.58693 
   53000    299.74389    -12149634    599.69126   -579.12074   -407.35688   -562.02818 
   53100    300.24779    -12149515    599.69725    -637.2598   -454.44713    -612.8447 
   53200    299.88423    -12149399    599.70325   -631.98805   -458.23705   -628.85441 
   53300    300.24377    -12149377    599.70924   -673.97324   -500.80141   -675.94398 
   53400    300.00818    -12149478    599.71524   -710.64332   -540.25131   -735.19236 
   53500    299.91046    -12149518    599.72123   -744.40118   -572.13382   -781.08357 
   53600    300.01884    -12149510    599.72723   -785.14962   -598.12857   -814.18731 
   53700    300.02422    -12149472    599.73322   -793.70859   -611.75486    -816.4981 
   53800    300.12565    -12149327    599.73922   -785.55375   -588.11008   -796.26122 
   53900    300.13496    -12149325    599.74521    -758.2745    -571.5447   -748.34197 
   54000    300.08264    -12149429    599.75121   -720.11151   -539.75223   -675.72144 
   54100     300.1225    -12149516     599.7572    -666.8737   -478.47513   -578.18017 
   54200    300.11197    -12149582     599.7632   -595.24079   -400.22399   -442.45277 
   54300    300.03911    -12149672    599.76919   -503.52237   -310.46647   -297.68982 
   54400    299.84791    -12149752    599.77519   -438.43818   -233.37894   -171.18295 
   54500    300.05646    -12149763    599.78118   -389.88938   -186.43275   -83.710699 
   54600    299.74437    -12149827    599.78718   -339.54827   -135.48459    9.1790595 
   54700    300.01259    -12149858    599.79317   -309.78934   -105.29998    55.090314 
   54800    299.94772    -12149804    599.79917   -282.23113   -83.555584    104.11738 
   54900    300.20517    -12149714    599.80517   -258.62299     -59.6073    150.41906 
   55000     300.1014    -12149719    599.81116   -198.11817  -0.35866905    246.78169 
   55100    299.78044    -12149841    599.81716    -139.5574    62.582227    348.24388 
   55200    300.10637    -12149905    599.82315    -93.89334    104.87908    425.17319 
   55300     299.7998    -12149973    599.82915   -37.695345     163.1031    522.37759 
   55400    300.09192    -12149958    599.83514    4.6905149    198.98063    597.07854 
   55500    300.02693    -12149937    599.84114    54.239818    246.50073    683.88175 
   55600     300.0433    -12149894    599.84713    86.579235    285.70065    738.95295 
   55700    300.18226    -12149939    599.85313    94.625398    297.66116    778.20531 
   55800    300.03746    -12150063    599.85912    118.56422    338.15202    831.77835 
   55900    299.87359    -12150150    599.86512    152.75128    373.73035    901.76404 
   56000    300.03545    -12150143    599.87111      164.658    396.57059    945.86456 
   56100    299.98727    -12150117    599.87711    166.86596    403.88359    964.89968 
   56200    300.20283    -12150021     599.8831    150.10639    405.53789    955.05996 
   56300    300.01548    -12149959     599.8891    156.10013    409.45359    947.99511 
   56400    300.24577    -12149995    599.89509    120.32729    382.08656    915.54812 
   56500     299.8428    -12150128    599.90109     89.27085     351.2557    865.10355 
   56600    300.00167    -12150109    599.90708    47.004835    321.01762    825.49147 
   56700    299.98679    -12150087    599.91308    1.0278563    290.91549    778.35581 
   56800    300.01586    -12149979    599.91907   -31.906439    260.12316    720.84435 
   56900    300.04279    -12149909    599.92507   -79.071065    225.37036    659.22536 
   57000    299.98833    -12149896    599.93106   -113.69712    204.19657    617.98078 
   57100    300.13932    -12149851    599.93706   -125.41135     183.7718    591.87307 
   57200    299.98096    -12149878    599.94305   -148.79212    166.14859    577.97788 
   57300    299.89969    -12149954    599.94905   -175.58784    156.74452    548.87834 
   57400    299.91302    -12149993    599.95504   -190.27611    145.86475    539.87837 
   57500     299.9618    -12149995    599.96104    -195.2239    147.83938    549.57626 
   57600    299.96018    -12149961    599.96703   -184.18473    179.51585    604.59785 
   57700    300.22727    -12149862    599.97303   -153.80387    203.55074    646.89965 
   57800    300.15185    -12149870    599.97902   -149.13665    226.43116    677.18461 
   57900    299.99093    -12150003    599.98502   -135.38372    236.87422    694.78183 
   58000    300.27664    -12150033    599.99101   -132.28399    257.85173    729.14622 
   58100    299.85543    -12150135    599.99701   -115.12279    288.18955    769.93058 
   58200    299.90202    -12150159      600.003   -116.08754    287.87624    790.66476 
   58300    299.81246    -12150081      600.009   -121.54481    304.93569    792.40028 
   58400    300.08813    -12149969    600.01499   -150.77011     290.9277    773.32945 
   58500    299.96278    -12149997    600.02099   -190.08988    258.08179    717.31118 
   58600    300.00418    -12149992    600.02698   -243.27826    216.33019    649.25926 
   58700    299.93327    -12149916    600.03298   -299.71255     159.0593    556.12367 
   58800     300.0931    -12149805    600.03897   -402.06985    75.136053     415.1276 
   58900    300.15409    -12149759    600.04497   -487.50864   -13.832903    273.00759 
   59000    299.85928    -12149807    600.05096     -560.755   -82.211669     164.5902 
   59100    299.64233    -12149944    600.05696   -644.91544   -148.89953    50.398915 
   59200    299.88338    -12149839    600.06296   -703.90447   -207.48497   -28.441103 
   59300    299.95248    -12149741    600.06895   -738.47536   -241.27269   -78.900213 
   59400    299.86428    -12149669    600.07495   -769.78403   -274.48122   -128.18507 
   59500    300.01466    -12149563    600.08094   -807.80122    -308.3271    -180.7586 
   59600    300.03168    -12149518    600.08694    -844.3396   -351.74726   -254.27866 
   59700    300.04828    -12149516    600.09293   -926.26563   -411.71944    -357.1756 
   59800    299.81886    -12149536    600.09893   -985.24352   -463.10654   -447.88649 
   59900    300.25599    -12149446    600.10492   -1048.3772   -527.75996     -548.835 
   60000    299.90054    -12149445    600.11092   -1102.9248   -573.76811   -613.13548 
   60100    299.94584    -12149399    600.11691   -1146.2305   -616.61771   -681.61316 
   60200    300.23557    -12149298    600.12291   -1208.1991   -670.20416   -763.38662 
   60300    299.96721    -12149309     600.1289   -1239.3063    -705.9047   -815.38751 
   60400    299.93713    -12149380     600.1349   -1266.9745   -742.25159   -856.93293 
   60500    299.92036    -12149498    600.14089   -1314.3302   -786.46504   -920.52441 
   60600    299.77738    -12149493    600.14689   -1344.5516   -812.85246   -959.35321 
   60700    299.95345    -12149374    600.15288   -1346.8799   -825.71451   -972.49855 
   60800    299.98755    -12149296    600.15888   -1346.2396   -813.83141   -951.25401 
   60900    300.05813    -12149282    600.16487   -1327.6319   -803.16585   -923.99359 
   61000    300.02238    -12149313    600.17087    -1306.851   -788.08062    -889.3276 
   61100    299.87659    -12149348    600.17686   -1281.9213   -765.06333   -847.75873 
   61200    300.03111    -12149329    600.18286   -1262.9999   -746.64408   -803.74074 
   61300    299.95165    -12149327    600.18885   -1226.4127   -719.11886   -742.40451 
   61400    299.99883    -12149253    600.19485   -1186.1896   -691.03314   -680.81356 
   61500    300.27009    -12149193    600.20084   -1169.8462   -663.73197   -638.32978 
   61600    299.78379    -12149309    600.20684   -1132.3492   -638.40819   -585.82233 
   61700    300.00661    -12149331    600.21283   -1132.1587   -630.91135   -562.67335 
   61800     300.1446    -12149338    600.21883   -1125.0188   -633.42344    -547.8248 
   61900    299.89347    -12149370    600.22482   -1117.2325   -625.20837   -532.58082 
   62000    300.12962    -12149348    600.23082   -1142.6795   -653.87576   -550.95013 
   62100    299.86046    -12149368    600.23681   -1155.0172   -655.47973   -565.48699 
   62200    299.99437    -12149327    600.24281   -1174.8089   -673.84033   -588.65517 
   62300    300.33101    -12149162     600.2488   -1200.7049   -703.61956   -621.20598 
   62400    300.05848    -12149202     600.2548     -1226.48   -743.31717   -656.91894 
   62500    300.03884    -12149298    600.26079   -1263.7637   -774.54892    -717.1999 
   62600    300.02513    -12149356    600.26679   -1300.7692   -798.50892   -756.17167 
   62700    299.84873    -12149390    600.27278   -1319.3013    -822.7523   -778.28413 
   62800    300.02938    -12149345    600.27878    -1338.191   -835.98815   -785.58635 
   62900    300.39309    -12149221    600.28477   -1346.5109   -836.56169   -788.82834 
   63000    300.10837    -12149188    600.29077   -1319.8951   -811.62692    -737.5431 
   63100    300.09141    -12149336    600.29676   -1303.2494   -785.66615   -688.30251 
   63200    299.88833    -12149431    600.30276    -1275.612    -746.9235   -627.48066 
   63300    300.03105    -12149449    600.30875   -1222.4592   -693.43018    -531.8278 
   63400    300.03562    -12149475    600.31475   -1134.4701   -609.02964   -391.58215 
   63500    299.81866    -12149563    600.32075   -1063.9642   -531.50402   -269.43377 
   63600    300.03918    -12149646    600.32674   -1020.4549   -479.37538   -178.30605 
   63700    299.95126    -12149701    600.33274   -956.00892   -415.89209   -70.762492 
   63800    299.81551    -12149736    600.33873   -904.20953   -363.42622    21.254944 
   63900     299.9852    -12149747    600.34473   -876.97723   -323.93873    87.363005 
   64000    299.97519    -12149718    600.35072    -842.6979   -282.69431    156.10257 
   64100    300.16281    -12149669    600.35672   -823.72079   -253.54566    203.30794 
   64200    299.88175    -12149714    600.36271   -784.69578   -210.04037    278.52285 
   64300    300.09186    -12149744    600.36871   -732.33089   -151.47943    368.23157 
   64400    299.98286    -12149868     600.3747   -693.16968   -101.31855    442.81445 
   64500    299.85116    -12149930     600.3807   -650.02759   -48.819688     536.4485 
   64600    299.97423    -12149904    600.38669    -594.8712    2.5042863     621.1775 
   64700    300.14725    -12149848    600.39269   -558.48005    43.924964    694.42131 
   64800    300.08254    -12149729    600.39868   -512.36907    102.69965    785.59785 
   64900    300.24126    -12149717    600.40468   -483.78205    144.08218    844.27198 
   65000    300.14258    -12149801    600.41067   -475.25521    156.00334    882.84184 
   65100    300.01733    -12149890    600.41667   -461.55445    182.17572    915.92345 
   65200    300.11845    -12149976    600.42266   -449.56407    178.36502    926.47154 
   65300    299.95213    -12150006    600.42866   -453.09455    180.26308    926.77883 
   65400    299.81421    -12149985    600.43465   -468.36112    175.97752    924.46068 
   65500    300.23903    -12149855    600.44065   -490.83851    165.41869     903.3196 
   65600    299.93131    -12149828    600.44664   -506.43749    159.77263    884.20449 
   65700    300.04263    -12149833    600.45264   -540.06238    120.69957    840.42237 
   65800    300.21209    -12149855    600.45863   -601.88476    79.846368     777.5984 
   65900    299.64875    -12149926    600.46463    -628.4829    43.188019    734.50613 
   66000    300.11578    -12149788    600.47062   -676.40373  -0.84387183    689.19394 
   66100    300.06091    -12149710    600.47662   -696.49987   -20.411586    655.35864 
   66200    300.01206    -12149733    600.48261   -724.97748   -41.538912    621.34379 
   66300    300.03174    -12149817    600.48861   -756.23776    -79.84222    571.27767 
   66400    299.67436    -12149849     600.4946   -774.47905   -89.126917    543.09346 
   66500    300.01327    -12149763     600.5006   -778.62661   -98.681549     532.7308 
   66600    300.07472    -12149721    600.50659    -774.5239    -89.73958    562.36276 
   66700    300.09126    -12149726    600.51259   -761.79804   -71.264132    593.43305 
   66800    299.90758    -12149817    600.51858   -756.71596   -67.742636    617.09617 
   66900    300.00308    -12149902    600.52458   -735.03566   -69.701973     639.4431 
   67000    299.79345    -12150096    600.53057   -717.11598   -61.352757    675.19929 
   67100     299.7856    -12150064    600.53657   -694.54876   -29.233272    715.44821 
   67200    299.93469    -12149966    600.54256   -677.56158   -22.625575    752.76256 
   67300    300.02582    -12149848    600.54856   -665.35126     -5.54857    774.37723 
   67400    299.99236    -12149803    600.55455   -664.85719   -2.2417308    787.43077 
   67500    300.02658    -12149819    600.56055   -681.61765   -29.789597    762.27669 
   67600    299.91892    -12149858    600.56654   -709.86784   -53.002793    731.12454 
   67700    299.92925    -12149832    600.57254   -744.02936   -87.604198    671.78841 
   67800    299.97917    -12149712    600.57853   -799.73036   -141.75678    585.19999 
   67900    300.16336    -12149620    600.58453   -852.87256   -209.88088    494.92829 
   68000    299.88157    -12149652    600.59053   -933.74198   -277.17811    381.99618 
   68100    300.06291    -12149670    600.59652   -1037.1136   -377.71037    239.42479 
   68200     299.5909    -12149696    600.60252   -1101.9061   -447.31025    140.09418 
   68300    300.12285    -12149539    600.60851   -1178.1278    -515.8207    25.012149 
   68400    299.88642    -12149480    600.61451   -1237.9683   -563.41174   -53.158178 
   68500    300.02247    -12149392     600.6205   -1275.4299   -622.94354   -120.58375 
   68600     300.1229    -12149366     600.6265   -1328.3069   -669.91069   -187.13197 
   68700    299.79865    -12149407    600.63249   -1373.9498   -717.23043   -252.22679 
   68800    300.20048    -12149320    600.63849   -1421.5363   -763.66203   -330.67441 
   68900    300.12389    -12149282    600.64448    -1464.198   -808.31607   -381.47899 
   69000    299.91951    -12149334    600.65048   -1529.9966   -866.55795   -486.22798 
   69100    299.95261    -12149408    600.65647    -1617.862   -940.93798   -590.85115 
   69200    299.65759    -12149438    600.66247    -1664.665   -982.57949   -661.71643 
   69300    299.85889    -12149266    600.66846   -1711.3211   -1024.6133   -725.86724 
   69400    300.02449    -12149157    600.67446   -1751.7911   -1057.5989   -789.42029 
   69500    300.00856    -12149113    600.68045   -1777.1113   -1084.3217   -823.27562 
   69600     300.0458    -12149095    600.68645   -1809.8247   -1116.8626    -856.4031 
   69700    300.01668    -12149106    600.69244   -1834.5288   -1127.1889   -890.67215 
   69800    299.96132    -12149197    600.69844   -1857.6981   -1141.0559   -916.38245 
   69900    299.80679    -12149264    600.70443   -1868.9586   -1151.0983   -924.20498 
   70000    300.08423    -12149214    600.71043   -1882.0315   -1152.0547   -920.40113 
   70100    300.16194    -12149076    600.71642   -1846.5946   -1122.1152   -863.97096 
   70200    300.02654    -12149046    600.72242   -1831.7404   -1093.2131   -815.55343 
   70300    300.25404    -12149087    600.72841    -1838.547   -1089.5321   -794.13465 
   70400    299.80288    -12149227    600.73441   -1811.2516   -1050.3838   -751.63858 
   70500    300.09118    -12149198     600.7404   -1790.1935   -1025.4958   -711.26759 
   70600    300.10485    -12149194     600.7464   -1768.6709   -1002.2486   -661.52321 
   70700    299.67678    -12149277    600.75239   -1741.6007   -966.74625   -608.86703 
   70800    300.12668    -12149241    600.75839   -1738.8103   -959.01966   -583.91351 
   70900    300.02724    -12149161    600.76438    -1718.252   -931.81343   -549.04191 
   71000    300.21657    -12149049    600.77038   -1710.4644   -917.48319   -526.52041 
   71100    300.15002    -12149096    600.77637   -1732.2706   -927.26293   -532.26348 
   71200    299.92788    -12149217    600.78237   -1759.2173   -935.24639   -550.91464 
   71300    300.03542    -12149212    600.78836   -1774.7567   -956.96228   -578.87051 
   71400    300.02274    -12149205    600.79436   -1807.5009   -971.33959   -617.37971 
   71500    299.89075    -12149218    600.80035   -1859.7499   -1002.0268   -666.69933 
   71600    300.03408    -12149205    600.80635   -1892.3616   -1044.8212   -717.61517 
   71700    300.01407    -12149183    600.81234   -1920.0259   -1068.8862   -756.28664 
   71800    299.80994    -12149154    600.81834   -1941.6019   -1084.0556   -767.85379 
   71900    300.19278    -12149021    600.82433    -1951.284   -1077.8112    -778.3436 
   72000    300.23912    -12149076    600.83033   -1971.2038   -1075.4113   -788.75478 
   72100    299.80787    -12149148    600.83632   -1966.3985   -1066.3195   -774.19513 
   72200    300.13213    -12149115    600.84232   -1944.9628   -1051.0171   -738.78085 
   72300    300.05283    -12149163    600.84832   -1914.2959   -1011.3381   -666.86467 
   72400    299.85558    -12149269    600.85431   -1879.8088   -970.99368   -585.88886 
   72500    299.93862    -12149362    600.86031   -1835.6359   -924.41784   -506.44283 
   72600    299.88872    -12149443     600.8663   -1769.8614   -852.11397   -392.28605 
   72700    299.69218    -12149413     600.8723    -1688.756   -770.05924   -262.88382 
   72800    300.25392    -12149349    600.87829   -1636.6084   -706.39991   -152.82862 
   72900    300.08818    -12149394    600.88429   -1568.3421    -628.5704   -33.283558 
   73000    299.82422    -12149499    600.89028   -1515.7877   -573.49744    47.546949 
   73100    300.30559    -12149539    600.89628   -1498.4276   -545.74617     98.08045 
   73200    299.76034    -12149583    600.90227    -1440.243   -481.61415    186.92704 
   73300    300.00804    -12149539    600.90827    -1411.319   -448.47816    246.01312 
   73400    300.20897    -12149535    600.91426   -1378.7142    -410.8808    312.66053 
   73500    299.85615    -12149651    600.92026   -1323.3182   -356.26484    409.59443 
   73600    299.94868    -12149730    600.92625   -1292.0446   -319.66689    478.99899 
   73700    299.83684    -12149721    600.93225   -1240.0437   -269.16492    570.37845 
   73800    300.02802    -12149671    600.93824   -1190.2896   -214.10572    652.22262 
   73900    299.83609    -12149686    600.94424   -1146.9558   -186.97626    721.89845 
   74000    300.25373    -12149630    600.95023   -1115.1624   -154.46535    773.81142 
   74100    299.84513    -12149675    600.95623   -1079.7283   -103.80329    834.86233 
   74200    300.06736    -12149709    600.96222   -1080.2899   -107.86896     853.1076 
   74300    299.86729    -12149787    600.96822   -1066.9433   -101.17039    883.05224 
   74400     299.8243    -12149873    600.97421   -1069.2277   -104.47579    887.31357 
   74500    299.98391    -12149809    600.98021   -1070.5821   -120.66035    880.74015 
   74600    300.02666    -12149692     600.9862   -1070.6315   -110.71437    886.62549 
   74700    300.16423    -12149659     600.9922   -1085.4311   -122.03203    868.91149 
   74800    299.89455    -12149684    600.99819   -1127.7476    -150.9288    821.32366 
   74900     300.0912    -12149658    601.00419   -1164.0567   -202.74661    763.45305 
   75000    299.93271    -12149671    601.01018   -1195.2077   -214.89256    729.73889 
   75100    300.00008    -12149677    601.01618   -1226.0522   -256.63579    678.53431 
   75200    299.80781    -12149640    601.02217   -1239.8031   -277.46392    646.84314 
   75300    300.13877    -12149532    601.02817   -1275.6572   -293.56797    617.39137 
   75400    300.06541    -12149509    601.03416   -1302.4661   -310.96084    606.88131 
   75500    299.79372    -12149539    601.04016   -1314.7321   -320.75323    581.85569 
   75600    300.19378    -12149557    601.04615   -1349.5887   -345.08625    555.98664 
   75700    299.72824    -12149637    601.05215   -1342.0646   -334.77208    564.41194 
   75800    300.01481    -12149575    601.05814   -1332.1191    -324.7686    589.75666 
   75900    300.12057    -12149506    601.06414   -1316.3511   -308.36415    620.75038 
   76000    300.06423    -12149487    601.07013   -1294.6314   -284.20191    665.68489 
   76100    300.19538    -12149485    601.07613   -1269.2212   -261.80723    715.34153 
   76200     300.1507    -12149627    601.08212   -1267.3067   -252.51806    736.38271 
   76300    299.85367    -12149719    601.08812   -1251.2649   -227.83367    763.53595 
   76400    299.89134    -12149718    601.09411   -1237.9005   -209.76283    798.61603 
   76500     300.2617    -12149658    601.10011   -1242.9442   -204.48156    797.99157 
   76600      299.947    -12149681     601.1061   -1255.0058   -220.01787      790.095 
   76700    299.85849    -12149769     601.1121   -1290.6406   -248.10404    754.18056 
   76800    299.85135    -12149790     601.1181   -1322.0968   -277.55745    711.71784 
   76900    300.19361    -12149675    601.12409   -1366.6086   -321.25621    647.07245 
   77000    299.87096    -12149662    601.13009   -1416.3708   -368.67039    563.58311 
   77100    299.86853    -12149592    601.13608   -1500.9732   -427.15463    458.05233 
   77200     299.9829    -12149536    601.14208   -1572.7165   -511.60338      341.814 
   77300    299.88224    -12149517    601.14807   -1646.4765   -560.52971    243.87304 
   77400    300.00086    -12149405    601.15407   -1713.4791   -632.14344    135.03175 
   77500    299.94375    -12149329    601.16006   -1788.6643   -699.35349    29.982723 
   77600    300.21488    -12149273    601.16606   -1858.1258   -763.71117   -62.430941 
   77700    299.80081    -12149285    601.17205   -1895.5838   -799.20509   -127.71113 
   77800    300.09446    -12149149    601.17805   -1956.7227   -849.63085   -205.96053 
   77900    300.31666    -12149100    601.18404   -2008.3886   -890.67816   -283.37167 
   78000    299.71645    -12149167    601.19004   -2052.2403   -924.38974   -336.94134 
   78100    300.12177    -12149128    601.19603   -2126.0668   -985.11777   -435.75603 
   78200    299.95842    -12149154    601.20203   -2189.8073   -1037.9171      -509.27 
   78300    299.90477    -12149159    601.20802   -2243.6223   -1098.7998   -599.45129 
   78400    300.11476    -12149062    601.21402   -2300.0832   -1147.2385   -674.83139 
   78500    299.90545    -12148984    601.22001   -2329.6406   -1171.6792   -718.50561 
   78600     300.1307    -12148900    601.22601   -2372.2394   -1214.3779   -774.06448 
   78700    300.09734    -12148894      601.232   -2421.6509   -1245.0644   -825.14655 
   78800    299.94054    -12148973      601.238   -2442.4731   -1255.2246   -840.96767 
   78900    300.11332    -12149115    601.24399   -2468.8206   -1293.7753   -873.62132 
   79000    299.71959    -12149138    601.24999   -2473.1782   -1291.8302   -880.44898 
   79100    299.91181    -12149033    601.25598   -2466.7363   -1287.3809   -867.61365 
   79200    300.17817    -12148975    601.26198   -2464.7271   -1282.9579   -857.08165 
   79300    299.83432    -12148977    601.26797   -2450.0767   -1260.4111     -821.089 
   79400    300.21666    -12148903    601.27397   -2439.5775   -1253.7227    -794.9903 
   79500    300.04715    -12148994    601.27996   -2410.3313   -1234.9182   -752.55643 
   79600     299.8975    -12149103    601.28596   -2383.0794   -1212.1582   -708.82537 
   79700    299.83601    -12149123    601.29195   -2362.5193    -1196.222   -662.23806 
   79800    300.17834    -12149038    601.29795     -2347.17   -1176.8282   -632.61687 
   79900     299.9835    -12148987    601.30394   -2319.5736   -1158.7762   -584.57192 
   80000    300.02246    -12148962    601.30994   -2315.7019   -1150.9572    -573.8884 
   80100    300.28039    -12148895    601.31593   -2318.0492   -1158.3688   -565.76877 
   80200    300.10276    -12148938    601.32193   -2318.8172   -1159.1888   -566.68067 
   80300    299.94603    -12149061    601.32792   -2348.2641   -1174.5742   -584.18658 
   80400    299.90507    -12149095    601.33392    -2363.026   -1204.1145   -608.48323 
   80500     300.0408    -12149037    601.33991   -2383.8834   -1216.9031   -634.32505 
   80600    300.04863    -12148936    601.34591   -2412.5098   -1240.6034   -668.54762 
   80700    300.17807    -12148816     601.3519   -2447.1222   -1279.6351    -722.8325 
   80800    300.18273    -12148836     601.3579   -2470.8431   -1308.2729   -771.95409 
   80900    299.87976    -12148987    601.36389   -2511.8017   -1328.1866   -803.11984 
   81000    300.07523    -12148972    601.36989   -2528.8917   -1356.6979    -826.5065 
   81100    299.84521    -12148993    601.37589   -2533.1221   -1352.6939   -827.30793 
   81200    300.04282    -12148922    601.38188   -2523.9453   -1341.7365   -805.08169 
   81300    300.10903    -12148858    601.38788   -2496.3024   -1322.7331   -761.94453 
   81400    300.05938    -12148897    601.39387   -2468.1593     -1298.93   -698.24344 
   81500    299.96927    -12149042    601.39987   -2433.3583   -1264.0008    -627.0395 
   81600    299.94797    -12149111    601.40586    -2387.274   -1213.7006   -540.87259 
   81700    299.85565    -12149074    601.41186   -2313.9881   -1137.8768   -416.40971 
   81800    300.23421    -12149009    601.41785   -2264.5078   -1072.3255   -311.75526 
   81900    299.82536    -12149064    601.42385   -2190.5996   -1009.8248   -188.65651 
[...]
 1028700    299.91337    -12136000    658.18559   -9003.3094   -4501.7863    30.995925 
 1028800    300.06784    -12135963    658.19158   -9013.0836   -4504.4299     16.43956 
 1028900    299.97531    -12135891    658.19758   -9002.2726   -4495.5149    26.999083 
 1029000    300.26884    -12135825    658.20357   -9012.2707   -4502.5231    31.152424 
 1029100    299.90784    -12135903    658.20957   -9008.4606   -4500.7581    28.173292 
 1029200    300.00963    -12135986    658.21556   -9020.7566   -4500.9918     24.87733 
 1029300    299.94671    -12136070    658.22156   -9035.4655    -4506.901    9.0812362 
 1029400     299.7214    -12136061    658.22755   -9041.4041    -4518.511   -1.2065536 
 1029500    300.14917    -12136006    658.23355   -9053.7532   -4523.5406    -9.337323 
 1029600    299.79713    -12136016    658.23954   -9044.3757   -4519.5351    2.0837739 
 1029700    300.04209    -12135922    658.24554   -9048.4576   -4532.2067   -3.2397591 
 1029800    300.13867    -12135843    658.25153    -9043.644   -4531.3539    7.0183348 
 1029900     299.9203    -12135839    658.25753   -9037.6186   -4531.7559     5.743086 
 1030000     300.2065    -12135814    658.26352   -9055.1335   -4536.4842    -11.60684 
 1030100    299.97505    -12135902    658.26952   -9048.8688   -4520.4124   -7.0202936 
 1030200    299.95395    -12135994    658.27551   -9071.3715   -4538.2457   -28.716573 
 1030300    299.95571    -12136043    658.28151   -9093.0724   -4545.6025    -44.93275 
 1030400    299.83641    -12135987     658.2875   -9068.9321   -4523.2621   -27.296948 
 1030500    299.97593    -12135875     658.2935   -9074.4365   -4523.6572   -32.780562 
 1030600    300.25434    -12135862    658.29949   -9083.9305   -4539.3273   -45.394437 
 1030700    299.79542    -12135939    658.30549   -9072.3211    -4531.023   -29.068979 
 1030800    300.06692    -12135936    658.31148    -9099.769   -4552.0285    -42.29001 
 1030900    299.82191    -12135960    658.31748   -9098.0307   -4544.0589   -41.641932 
 1031000    300.06333    -12135897    658.32347   -9098.6533   -4542.8795   -42.159795 
 1031100    300.07569    -12135864    658.32947   -9107.7481   -4549.8248   -63.733356 
 1031200     299.9992    -12135848    658.33546    -9114.353   -4551.0597   -70.918843 
 1031300    300.07427    -12135788    658.34146   -9103.9321   -4544.4268   -58.522285 
 1031400    300.03946    -12135811    658.34745   -9112.5497   -4541.8496   -58.552175 
 1031500    300.01333    -12135925    658.35345   -9123.9161    -4559.785   -73.003785 
 1031600    299.88517    -12136000    658.35944   -9143.3858   -4568.5615    -81.77661 
 1031700    299.78473    -12135991    658.36544   -9134.8452   -4565.9746    -79.29586 
 1031800    300.05528    -12135864    658.37143   -9131.7399   -4563.1945   -76.155121 
 1031900    299.99913    -12135823    658.37743    -9125.179   -4558.4167    -67.11001 
 1032000    300.15754    -12135813    658.38342   -9133.7177   -4549.8999   -70.850447 
 1032100    299.91627    -12135913    658.38942   -9137.7088   -4557.9705    -80.58755 
 1032200    300.03189    -12135934    658.39541    -9143.096    -4558.696   -90.439001 
 1032300    299.80906    -12135908    658.40141   -9130.9681    -4536.469   -73.438194 
 1032400    300.23607    -12135801    658.40741   -9138.4373   -4549.3936   -84.501459 
 1032500    300.00199    -12135816     658.4134    -9129.805   -4543.2728   -61.492508 
 1032600    299.78639    -12135996     658.4194    -9125.368   -4537.5084    -55.94006 
 1032700    299.86071    -12135986    658.42539   -9120.8916   -4537.5672   -52.033939 
 1032800     300.0746    -12135921    658.43139   -9119.1618   -4532.4993   -47.962445 
 1032900    299.89386    -12135876    658.43738    -9099.199    -4516.909   -26.468971 
 1033000    300.11637    -12135723    658.44338   -9092.2265   -4510.8487   -12.127262 
 1033100    300.24176    -12135713    658.44937    -9098.928   -4505.4373   -10.038681 
 1033200    300.25931    -12135812    658.45537   -9112.3847   -4519.0445   -13.837331 
 1033300    299.76285    -12135919    658.46136   -9113.7108   -4512.6253   -19.747695 
 1033400     300.1684    -12135885    658.46736   -9134.7633   -4522.1089   -35.842099 
 1033500    299.87435    -12135867    658.47335   -9103.3744   -4503.9379   -11.270873 
 1033600    300.18481    -12135777    658.47935    -9102.432   -4503.0999   -2.0528068 
 1033700    300.13481    -12135757    658.48534   -9091.8888   -4496.8399    14.441219 
 1033800    299.89199    -12135865    658.49134   -9091.1354   -4483.5073    20.748949 
 1033900    300.15687    -12135964    658.49733   -9109.3105   -4500.2998    2.1278963 
 1034000    299.76809    -12136018    658.50333   -9106.6333   -4496.2418   -1.8650283 
 1034100    299.91099    -12135938    658.50932   -9102.0244   -4490.4278    1.4546578 
 1034200    300.11035    -12135866    658.51532   -9097.4077   -4484.3807    22.963651 
 1034300    299.99149    -12135885    658.52131   -9098.8828   -4480.3533    22.577123 
 1034400    299.86796    -12135879    658.52731   -9104.0727   -4477.8611    23.340021 
 1034500    300.20035    -12135837     658.5333   -9104.6083    -4483.887     18.08893 
 1034600    299.70658    -12135981     658.5393    -9104.077   -4488.3965    24.568981 
 1034700    299.88025    -12136027    658.54529   -9102.2854   -4486.6041    26.825766 
 1034800    299.96362    -12135988    658.55129   -9083.2932   -4483.2551    34.238734 
 1034900    299.96097    -12135898    658.55728   -9084.5926   -4482.7637    43.366476 
 1035000    299.99364    -12135839    658.56328   -9076.8362   -4482.4624    33.639892 
 1035100    300.02952    -12135823    658.56927   -9075.4311   -4476.7505    35.518902 
 1035200    300.08085    -12135815    658.57527   -9078.4419   -4470.9732    35.921719 
 1035300    299.81495    -12135939    658.58126    -9080.376   -4471.2275    34.540153 
 1035400     299.9929    -12135962    658.58726   -9092.7805   -4471.6442    37.762796 
 1035500    300.00305    -12135917    658.59325   -9084.1924   -4461.4805    35.331646 
 1035600    299.97611    -12135900    658.59925   -9073.4331   -4464.6658    54.507457 
 1035700    299.96964    -12135881    658.60524   -9067.4778   -4456.8686    66.237557 
 1035800    300.09434    -12135774    658.61124    -9056.812   -4442.9713    82.327992 
 1035900    300.32671    -12135772    658.61723   -9064.5231   -4458.3495    70.886695 
 1036000    299.85837    -12135892    658.62323    -9063.834   -4464.3705     62.05215 
 1036100    300.02067    -12135879    658.62922   -9060.0347    -4464.673    77.690135 
 1036200    299.93162    -12135879    658.63522   -9050.4897   -4459.8283    89.856172 
 1036300    300.08565    -12135868    658.64121   -9065.3969   -4476.6069    80.257602 
 1036400    299.98194    -12135899    658.64721   -9062.2163   -4471.8607    82.444659 
 1036500    299.94464    -12135949     658.6532   -9060.6755   -4477.6562    73.929377 
 1036600    300.02952    -12135961     658.6592   -9068.5135   -4477.5345    62.794748 
 1036700    299.70336    -12135963    658.66519   -9046.0458   -4469.8326    69.979537 
 1036800    300.20312    -12135829    658.67119   -9060.0904   -4482.3474    48.571191 
 1036900    300.10546    -12135811    658.67719    -9049.167   -4489.8931     55.48359 
 1037000    299.91472    -12135871    658.68318   -9048.1312   -4484.8948    70.599948 
 1037100    299.92818    -12135995    658.68918   -9069.9108   -4506.6484    43.889118 
 1037200    299.80978    -12136004    658.69517   -9076.6148   -4514.9715    32.301582 
 1037300     299.8919    -12135954    658.70117   -9080.0519   -4518.8344    19.943022 
 1037400    299.98277    -12135875    658.70716   -9091.1867     -4525.04    17.197823 
 1037500    300.00534    -12135820    658.71316   -9092.8638   -4523.6439    9.6366408 
 1037600    300.10298    -12135791    658.71915   -9102.2953   -4531.2466   0.30946091 
 1037700    300.03998    -12135786    658.72515   -9109.0711   -4538.1408   -9.8025407 
 1037800    299.92234    -12135830    658.73114   -9116.6951   -4535.1642   -17.265886 
 1037900    300.11557    -12135847    658.73714   -9120.9123    -4549.797   -10.550051 
 1038000    299.75761    -12135928    658.74313   -9107.8647   -4537.0648   -10.250137 
 1038100    300.05516    -12135897    658.74913   -9114.9741   -4551.1913   -16.645465 
 1038200    300.11686    -12135824    658.75512   -9109.8222   -4558.1236   -16.828689 
 1038300    300.03402    -12135772    658.76112   -9102.4463   -4554.5276   -1.6965896 
 1038400    300.07862    -12135697    658.76711   -9091.7192   -4546.8044    0.9724389 
 1038500    300.19745    -12135648    658.77311   -9106.3481    -4558.552   -24.319222 
 1038600    299.96097    -12135720     658.7791   -9114.0915   -4565.2872   -25.326323 
 1038700    300.03926    -12135875     658.7851   -9124.3969   -4579.9716   -36.157633 
 1038800    299.94033    -12135913    658.79109   -9126.2114   -4595.4626   -45.608446 
 1038900    299.90593    -12135856    658.79709   -9119.7764   -4593.0935   -34.427201 
 1039000    300.17664    -12135785    658.80308   -9125.8116   -4591.9264   -31.431545 
 1039100    300.04388    -12135802    658.80908   -9123.7604   -4605.3576   -39.624809 
 1039200    299.86567    -12135827    658.81507   -9115.3814   -4601.9057   -26.389305 
 1039300    299.91732    -12135847    658.82107   -9114.3414   -4596.2432    -16.13955 
 1039400    300.16423    -12135806    658.82706   -9112.9201    -4608.555   -23.758842 
 1039500    299.77743    -12135833    658.83306   -9105.9025   -4609.2968   -23.493244 
 1039600    300.19184    -12135831    658.83905   -9126.9277   -4631.1036   -43.691179 
 1039700    299.82181    -12135886    658.84505   -9124.6865   -4623.0288   -50.511744 
 1039800    299.90573    -12135866    658.85104   -9122.9139   -4632.6097   -52.738738 
 1039900    300.11472    -12135744    658.85704   -9117.0592   -4628.5186   -48.705911 
 1040000    300.04759    -12135713    658.86303   -9107.7298    -4634.356   -48.081452 
 1040100    300.15976    -12135779    658.86903   -9127.5128   -4645.4398   -49.509699 
 1040200    299.83425    -12135913    658.87502   -9131.4368    -4654.558   -51.009308 
 1040300    300.08501    -12135887    658.88102   -9131.0316   -4661.6149   -57.954851 
 1040400    299.90328    -12135889    658.88701   -9135.2477   -4660.3053   -66.697918 
 1040500    299.93843    -12135797    658.89301   -9141.6543   -4660.2073   -82.741737 
 1040600    300.13928    -12135709      658.899   -9125.5786   -4660.3093   -85.096277 
 1040700    299.92862    -12135737      658.905   -9119.5816    -4658.281   -71.004565 
 1040800    300.11326    -12135782    658.91099   -9125.0541   -4665.0069   -83.334056 
 1040900    299.86296    -12135899    658.91699   -9120.1076   -4669.4953   -85.731177 
 1041000     299.9195    -12135883    658.92298   -9122.8923   -4664.6982   -85.789023 
 1041100    300.06167    -12135857    658.92898   -9127.0325   -4670.7214   -82.169112 
 1041200    299.92816    -12135861    658.93498   -9116.3942   -4662.7959   -67.535712 
 1041300    300.04837    -12135799    658.94097   -9093.6877   -4666.1755   -60.795058 
 1041400    300.22327    -12135655    658.94697   -9079.8981   -4646.9747   -41.405367 
 1041500    300.15065    -12135656    658.95296     -9068.05   -4646.1342   -36.782154 
 1041600    300.00773    -12135773    658.95896   -9069.6107   -4653.2882   -41.939227 
 1041700    300.13988    -12135819    658.96495   -9071.4264   -4645.9286   -32.610817 
 1041800    299.86723    -12135879    658.97095   -9060.9393   -4629.0343   -18.828851 
 1041900    299.94955    -12135918    658.97694   -9070.0905   -4641.4462   -18.441862 
 1042000    299.97937    -12135901    658.98294   -9062.8462   -4638.7594   -9.5420885 
 1042100    300.04537    -12135756    658.98893   -9047.9708   -4633.3645    5.3622645 
 1042200    300.11228    -12135719    658.99493   -9040.4875   -4636.1525     6.338674 
 1042300    300.07472    -12135752    659.00092   -9038.2714   -4635.8644    15.290144 
 1042400    300.03754    -12135818    659.00692   -9046.8854   -4632.6281    13.220325 
 1042500    300.06669    -12135843    659.01291   -9050.2565    -4635.705    6.8345049 
 1042600    299.83869    -12135879    659.01891   -9038.0091   -4621.3342    22.668751 
 1042700    300.20331    -12135865     659.0249   -9044.0653   -4632.0822    9.5652564 
 1042800      299.689    -12135942     659.0309   -9028.8924   -4619.7943    13.529589 
 1042900    299.96119    -12135981    659.03689   -9024.3901   -4633.6136    12.041386 
 1043000    299.93792    -12135977    659.04289   -9021.6474   -4635.0532    14.926344 
 1043100    299.84965    -12135873    659.04888   -9021.5822   -4630.1248    33.073632 
 1043200    300.09037    -12135753    659.05488   -9015.1734   -4630.5906    45.193672 
 1043300    300.13821    -12135733    659.06087   -9019.9483   -4632.3985    38.147589 
 1043400    300.03155    -12135841    659.06687   -9031.5748   -4639.3488    25.461061 
 1043500    299.96264    -12135895    659.07286   -9028.7715    -4651.523    18.740036 
 1043600     300.0084    -12135895    659.07886   -9021.9338   -4649.1562    9.4928928 
 1043700    299.87013    -12135896    659.08485   -9017.5702   -4649.0361    19.301997 
 1043800    300.10061    -12135758    659.09085   -9007.7907   -4649.2534    30.992743 
 1043900    300.14635    -12135742    659.09684   -9006.1202   -4645.9332    32.208485 
 1044000    300.12584    -12135818    659.10284   -9010.8276    -4649.062    36.579445 
 1044100     299.8852    -12135880    659.10883   -9000.1518   -4649.9253    44.979449 
 1044200    300.08894    -12135859    659.11483   -9011.1614   -4652.6191     32.36266 
 1044300    299.97867    -12135856    659.12082   -8991.8539   -4637.1535    34.801754 
 1044400    299.84921    -12135885    659.12682   -8980.9563   -4637.2717    42.086806 
 1044500    299.98272    -12135874    659.13281   -8995.1519    -4641.154    36.403223 
 1044600    300.02972    -12135814    659.13881    -8982.002   -4641.8172    54.680592 
 1044700    300.11702    -12135799     659.1448   -8980.5587   -4639.1166    78.292263 
 1044800    299.99381    -12135890     659.1508     -8975.26   -4642.5709    85.612982 
 1044900    299.89098    -12135976    659.15679   -8967.0458    -4641.763    87.588036 
 1045000    299.88034    -12135975    659.16279   -8969.2653   -4638.4026    77.172861 
 1045100     300.1267    -12135823    659.16878   -8962.7334    -4631.675    75.335346 
 1045200    299.99841    -12135741    659.17478   -8937.1357    -4618.604    89.691542 
 1045300    300.12826    -12135757    659.18077   -8939.5942   -4624.5295    85.222747 
 1045400    299.95803    -12135853    659.18677   -8959.1904   -4633.6704    70.331708 
 1045500    300.00229    -12135908    659.19276   -8965.9941   -4646.0357    64.235611 
 1045600    300.00548    -12135962    659.19876   -8983.3776   -4663.5653    54.524751 
 1045700    299.80428    -12135959    659.20476   -8993.7435    -4668.722    49.381457 
 1045800    299.89343    -12135918    659.21075   -8995.5146   -4669.8825    49.379344 
 1045900    300.04959    -12135843    659.21675    -8995.204   -4676.6376    52.099615 
 1046000    299.95272    -12135769    659.22274    -8978.408   -4680.6703    47.986678 
 1046100    300.14398    -12135694    659.22874   -8986.6737   -4693.4567    35.336906 
 1046200    300.05438    -12135741    659.23473   -8994.4859   -4702.6325    25.276166 
 1046300    299.92818    -12135873    659.24073   -9009.4471   -4724.2419    9.5808861 
 1046400    299.83973    -12135889    659.24672   -9008.8582    -4716.134    13.622499 
 1046500    300.11647    -12135821    659.25272   -9012.1217   -4726.3984    4.0173097 
 1046600    300.12929    -12135789    659.25871     -9020.23    -4728.084   -10.492082 
 1046700    299.73269    -12135885    659.26471   -9020.6325   -4721.8954   -13.037958 
 1046800    299.89897    -12135933     659.2707   -9025.1784   -4730.7629   -21.727132 
 1046900    300.09656    -12135836     659.2767   -9018.2027   -4732.5493   -19.231498 
 1047000    299.98555    -12135698    659.28269   -8999.5065   -4720.1983    5.5863617 
 1047100    300.18325    -12135632    659.28869   -9000.7694   -4723.5601    5.5389919 
 1047200    300.14308    -12135690    659.29468   -9003.4717   -4734.5803    4.1494319 
 1047300    299.94061    -12135771    659.30068   -9005.0315   -4732.7003  0.043091968 
 1047400    300.09012    -12135789    659.30667   -9017.5416   -4745.2395   -14.429986 
 1047500    299.76619    -12135834    659.31267   -9018.5444   -4747.4039   -23.885458 
 1047600    300.16038    -12135791    659.31866   -9025.4615   -4745.2744   -36.216036 
 1047700     300.1918    -12135730    659.32466   -9016.1614   -4742.4249   -27.144177 
 1047800    299.67218    -12135784    659.33065   -9012.3281    -4742.566   -28.369749 
 1047900     300.2181    -12135718    659.33665   -9021.1307   -4762.0823   -32.255306 
 1048000    300.02994    -12135714    659.34264   -9017.3715   -4755.4231   -27.734012 
 1048100    299.84257    -12135830    659.34864   -9030.9102   -4771.2709   -42.729198 
 1048200    299.91831    -12135893    659.35463   -9034.3568   -4767.5614   -47.189196 
 1048300     299.9241    -12135833    659.36063   -9019.5528   -4761.9138   -33.462078 
 1048400    299.94332    -12135670    659.36662    -9013.167   -4752.3637   -31.672393 
 1048500    300.26419    -12135596    659.37262   -9032.2325    -4760.288   -43.994493 
 1048600    300.03344    -12135692    659.37861   -9039.8709    -4775.078   -59.668493 
 1048700    299.95822    -12135762    659.38461    -9051.751   -4790.2206   -76.835104 
 1048800    299.98283    -12135778     659.3906   -9053.0265   -4794.4203   -84.660406 
 1048900    299.84344    -12135730     659.3966   -9040.0156   -4791.2702   -79.532966 
 1049000     300.2512    -12135596    659.40259   -9042.3301   -4792.3583    -83.97802 
 1049100    300.03319    -12135647    659.40859   -9041.6371   -4798.2147   -88.903742 
 1049200    299.99465    -12135735    659.41458   -9052.6725   -4804.9337   -100.55191 
 1049300    299.98852    -12135782    659.42058   -9051.7879   -4819.5949    -105.6623 
 1049400    299.82733    -12135764    659.42657   -9049.5418   -4810.4668   -106.43658 
 1049500    300.05026    -12135675    659.43257   -9045.7602   -4806.2506   -100.63594 
 1049600    300.08073    -12135666    659.43856   -9044.9993   -4794.1831   -87.263206 
 1049700    300.04385    -12135698    659.44456   -9042.2053   -4807.4791   -88.986902 
 1049800    299.88416    -12135756    659.45055   -9039.2131   -4803.3813   -96.856886 
 1049900    299.96519    -12135764    659.45655   -9048.4344   -4798.5485   -94.326229 
 1050000    300.01211    -12135670    659.46255   -9038.4215    -4788.335   -77.473985 
Loop time of 488503 on 24 procs for 1000000 steps with 3167201 atoms

Performance: 0.177 ns/day, 135.695 hours/ns, 2.047 timesteps/s
99.4% CPU use with 24 MPI tasks x no OpenMP threads

MPI task timing breakdown:
Section |  min time  |  avg time  |  max time  |%varavg| %total
---------------------------------------------------------------
Pair    | 3.7874e+05 | 3.9612e+05 | 4.086e+05  |1264.2 | 81.09
Neigh   | 1419.7     | 1563.9     | 1679       | 155.6 |  0.32
Comm    | 35070      | 47348      | 65157      |3701.4 |  9.69
Output  | 683.85     | 694.01     | 707.79     |  26.0 |  0.14
Modify  | 30544      | 33798      | 36076      | 922.8 |  6.92
Other   |            | 8980       |            |       |  1.84

Nlocal:    131967 ave 151406 max 113017 min
Histogram: 1 1 3 3 6 2 3 3 1 1
Nghost:    39950.7 ave 42576 max 36933 min
Histogram: 1 0 3 1 5 3 8 0 2 1
Neighs:    6.32092e+06 ave 7.12786e+06 max 5.26038e+06 min
Histogram: 1 0 1 3 4 6 2 2 3 2

Total # of neighbors = 151702141
Ave neighs/atom = 47.8979
Neighbor list builds = 4688
Dangerous builds = 0
Total wall time: 142:19:40
