Lammps data input converted from CFG format

  12150 atoms
      0 bonds
      0 angles
      0 dihedrals
      0 impropers

      4 atom types
      0 bond types
      0 angle types
      0 dihedral types
      0 improper types

      0   25.202100000000002 xlo xhi
      0  268.980000000000018 ylo yhi
      0   71.322500000000005 zlo zhi
         1.036330000000000   -1.406290000000000   -0.027670800000000 xy xz yz

Atoms

           1     3      2.165242309006126   78.378550992913233    0.737727309181452  0  0  0
           2     3      2.130186489357949   80.599522008758612    4.596841018003468  0  0  0
           3     1      3.091769932695654   78.338883003023824    5.938362984326990  0  0  0
           4     2      3.144593426565565   80.624987322998109    1.961287648614399  0  0  0
           5     4      4.022407092806437   78.469543047430093    3.289583082623538  0  0  0
           6     2      3.962368946241516   80.585474427085572    7.255629994708498  0  0  0
           7     1      2.047836412922241   78.369164180987497    8.626686904351075  0  0  0
           8     1      1.996322466591481   80.590654402970344   12.520103733820223  0  0  0
           9     4      2.897762153290581   78.423357343952034   13.871488998804534  0  0  0
          10     2      2.992131473723741   80.612870004995770    9.860799543461946  0  0  0
          11     1      3.886891020308945   78.373116582743066   11.240419704823813  0  0  0
          12     2      3.812400908735117   80.587104456648063   15.149051699363282  0  0  0
          13     1      1.923245124427918   78.327272300806470   16.435808169595006  0  0  0
          14     4      1.825194507869705   80.624579010491360   20.432931719983603  0  0  0
          15     3      2.652891126689107   78.328273463795838   21.713811959486357  0  0  0
          16     1      2.801296740765351   80.637599693459407   17.793617130743613  0  0  0
          17     4      3.764073628202377   78.402224562121376   19.060639222969215  0  0  0
          18     3      3.688472768512909   80.585731085058981   23.040864400583370  0  0  0
          19     2      1.727495635590250   78.351211322867329   24.418454396666089  0  0  0
          20     1      1.645793016368791   80.546891398155353   28.366417744210725  0  0  0
          21     4      2.555775144517788   78.318172388491945   29.692731974034750  0  0  0
          22     1      2.653292544870065   80.550013150425187   25.704270607835522  0  0  0
          23     4      3.570011623558403   78.315390535206546   27.098175747053112  0  0  0
          24     3      3.522521388901772   80.552914052987020   31.039922493421678  0  0  0
          25     4      1.605459786420065   78.344107974972488   32.341383726426081  0  0  0
          26     2      1.536793525203553   80.547750692849959   36.278951114583215  0  0  0
          27     3      2.338271486136936   78.308158070859193   37.671184760500793  0  0  0
          28     4      2.483788088419577   80.515920952617023   33.683961152065187  0  0  0
          29     3      3.416774556327657   78.298225813306487   35.003105268989096  0  0  0
          30     1      3.356786086985523   80.576609884997708   38.980996947746171  0  0  0
          31     2      1.435917093000813   78.371337413087659   40.288550686635077  0  0  0
          32     3      1.376327820164674   80.597387277302957   44.213007369380946  0  0  0
          33     4      2.313735648757675   78.402908461266804   45.562010966258825  0  0  0
          34     2      2.353972637117486   80.600286292803361   41.598449837288726  0  0  0
          35     1      3.280815654022859   78.325366321836469   42.911641956625495  0  0  0
          36     4      3.198498061656540   80.606279801286675   46.830021376116747  0  0  0
          37     4      1.270582524666882   78.393799259253768   48.098261002542998  0  0  0
          38     3      1.236777343297449   80.556395751144834   52.112065259240374  0  0  0
          39     2      2.113399355854915   78.321935988206491   53.456746996583867  0  0  0
          40     1      2.220134521291827   80.564154524928313   49.453036340726619  0  0  0
          41     1      3.144516368281997   78.273225264543115   50.842872768465739  0  0  0
          42     1      3.034498180198713   80.553599089891208   54.750367430848833  0  0  0
          43     2      1.190016962768468   78.302616621101492   56.020188661585905  0  0  0
          44     1      1.028517014221833   80.559678588442821   60.104169397851621  0  0  0
          45     3      2.080789506375594   78.283814352044800   61.316899784273758  0  0  0
          46     3      2.032364211384315   80.552465753656648   57.445006700313520  0  0  0
          47     2      3.042111533358842   78.305384869481529   58.655300316540803  0  0  0
          48     1      2.841549490715680   80.573343178656572   62.731672744187868  0  0  0
          49     3      1.031399835264513   78.334650507584840   64.046572820240954  0  0  0
          50     1      0.888949010104788   80.543112532889509   68.002571120975162  0  0  0
          51     3      1.816408176626369   78.355578645449540   69.371026775859079  0  0  0
          52     2      1.876682011359965   80.560631394177435   65.346975895816016  0  0  0
          53     3      2.809156399444978   78.347005477708066   66.594155888065586  0  0  0
          54     2      2.694928636472331   80.562258476458624   70.661369326251460  0  0  0
          55     2      2.225913082704239   82.853999502401891    0.651379640926378  0  0  0
          56     2      2.131283167680521   85.158085181560281    4.607142177888993  0  0  0
          57     3      3.031135607411575   82.875282091305081    5.936947016009065  0  0  0
          58     2      3.129346475096693   85.129337570158427    1.965391144688004  0  0  0
          59     2      4.007999708654161   82.871582724790144    3.268592120873879  0  0  0
          60     3      3.997444712554016   85.189486765230427    7.256705044462432  0  0  0
          61     2      2.082403510671336   82.856326681766944    8.567947047123376  0  0  0
          62     1      1.993916048672765   85.210834594099850   12.531769712616841  0  0  0
          63     1      2.893020905748561   82.884588210057785   13.834849375408769  0  0  0
          64     3      2.974309716273025   85.145846159668011    9.882298214471655  0  0  0
          65     2      3.914656354511712   82.872925858067532   11.184504022697741  0  0  0
          66     3      3.811850670299020   85.235552558031486   15.156599711530037  0  0  0
          67     2      1.917761294122069   82.895115643713979   16.465693975847852  0  0  0
          68     2      1.860398327959693   85.193432434862430   20.430403648635956  0  0  0
          69     4      2.738752266968130   82.912544847519456   21.721621669325895  0  0  0
          70     4      2.821429931953315   85.183396247833656   17.802753163685580  0  0  0
          71     2      3.720217892896981   82.929482392369167   19.118573717394394  0  0  0
          72     4      3.634881390448816   85.201128476283046   23.027656116758976  0  0  0
          73     1      1.755226663969621   82.912392780573342   24.356356461445326  0  0  0
          74     1      1.700795411137563   85.214808395448429   28.364855310637651  0  0  0
          75     3      2.562477295456890   82.878898172444224   29.684478406226489  0  0  0
          76     3      2.692957685563748   85.241810871459094   25.696037440108871  0  0  0
          77     4      3.582298298848832   82.885999093785173   27.033778102396713  0  0  0
          78     1      3.528447951554916   85.214519606117960   31.034291472720696  0  0  0
          79     3      1.601882521878624   82.833783490530877   32.391222277889909  0  0  0
          80     3      1.523009965293159   85.162661252222989   36.342146417975414  0  0  0
          81     1      2.401359995752946   82.851371689608783   37.662076001727236  0  0  0
          82     3      2.541406056867431   85.199433612276195   33.654033487931954  0  0  0
          83     1      3.407481941719783   82.831679955678453   34.983184141515508  0  0  0
          84     4      3.341070210311685   85.168315306265072   38.953937409428761  0  0  0
          85     4      1.446982721628409   82.872834519911606   40.300649674144033  0  0  0
          86     3      1.348602298105235   85.118403754491979   44.203445613667292  0  0  0
          87     4      2.292964935936553   82.863947135390035   45.543309314346452  0  0  0
          88     1      2.373132380047920   85.126367956730604   41.575013070681059  0  0  0
          89     4      3.251833189002394   82.839808205479954   42.912760691900957  0  0  0
          90     2      3.186801257533544   85.114146210764659   46.855861376194383  0  0  0
          91     2      1.305169468527971   82.852653109478894   48.149773826396405  0  0  0
          92     2      1.224258127553822   85.173011796575025   52.155315223610110  0  0  0
          93     1      2.131471944664173   82.921242272069705   53.450947580845273  0  0  0
          94     1      2.211885660332007   85.121322173509469   49.494344099614224  0  0  0
          95     4      3.102635311295210   82.841091888015214   50.790167404189795  0  0  0
          96     2      3.027869343799900   85.235601776912404   54.820587946742613  0  0  0
          97     1      1.109718153157039   82.906487275777891   56.133805168901958  0  0  0
          98     4      1.017837647425833   85.155752960109865   60.086254288088433  0  0  0
          99     2      1.924820543935315   82.881366934391409   61.414020405759793  0  0  0
         100     2      2.024503155806808   85.185376261059361   57.441400987468754  0  0  0
         101     2      2.939953564302300   82.898520830109334   58.764569653109305  0  0  0
         102     4      2.827556042759455   85.141177483234003   62.740324309391724  0  0  0
         103     4      0.974452340874237   82.854457403375065   64.024867988322356  0  0  0
         104     4      0.904694605246035   85.118430711189390   67.996011522024503  0  0  0
         105     4      1.771973336165137   82.839870581276543   69.352828630694404  0  0  0
         106     4      1.887190833215826   85.152259252322594   65.340389140183859  0  0  0
         107     1      2.778823590923243   82.843707834447869   66.692178225893912  0  0  0
         108     4      2.709404869268243   85.087805678396919   70.633729049067540  0  0  0
         109     1      2.212022641412165   87.439327776512584    0.626645351680650  0  0  0
         110     1      2.129010582849643   89.733564161972907    4.621117865728102  0  0  0
         111     2      3.038951689898308   87.443634216449311    5.936559783113235  0  0  0
         112     3      3.151305591621798   89.752506957157394    1.951806452845117  0  0  0
         113     4      4.039285839214725   87.427478131624198    3.291155009065336  0  0  0
         114     2      3.945204696709035   89.710159665387181    7.247173158602934  0  0  0
         115     2      2.063830938545070   87.462536784808279    8.543608760524693  0  0  0
         116     1      1.998436452491068   89.755165442160575   12.573976592685419  0  0  0
         117     2      2.903258373517399   87.503545441787779   13.868146564856442  0  0  0
         118     1      2.939119380702093   89.752148851040872    9.869565704939973  0  0  0
         119     3      3.895025493424451   87.476506903588302   11.229445698406700  0  0  0
         120     2      3.807132823624460   89.775548446994136   15.183754262662939  0  0  0
         121     4      1.956037727072496   87.498779300471696   16.470497502249824  0  0  0
         122     4      1.834124017294128   89.766183475045807   20.449233240570759  0  0  0
         123     1      2.770841165991375   87.494375666157723   21.773824703379038  0  0  0
         124     4      2.803111772527221   89.762792474289455   17.800247813887747  0  0  0
         125     3      3.748682359275433   87.487878255814806   19.103942916307343  0  0  0
         126     2      3.670443261625398   89.801904472405596   23.097501005306441  0  0  0
         127     4      1.758967542489416   87.519762121969052   24.383068063397729  0  0  0
         128     4      1.723265954974940   89.796635256347571   28.352666487149822  0  0  0
         129     2      2.597567472541932   87.510171493123948   29.696925800283186  0  0  0
         130     4      2.673031486687718   89.762261588827002   25.714765240604198  0  0  0
         131     2      3.582661952108773   87.545873984907871   27.056593226941597  0  0  0
         132     1      3.538177455130213   89.765749008147111   31.043620104025095  0  0  0
         133     4      1.628432161016022   87.513390026549942   32.344012596028350  0  0  0
         134     4      1.520457735504638   89.788921317145267   36.276770127606738  0  0  0
         135     2      2.462838943621112   87.474200461765690   37.633738127710473  0  0  0
         136     2      2.520514129757022   89.774915994759994   33.666895031256054  0  0  0
         137     1      3.440173941008162   87.500543672986922   34.980100360776383  0  0  0
         138     2      3.332768749582230   89.743170854980846   38.916584754742765  0  0  0
         139     3      1.477995968473712   87.413798252456047   40.229047325197904  0  0  0
         140     1      1.389859025923394   89.723626363143140   44.198439639854477  0  0  0
         141     1      2.318521805253745   87.444794281666333   45.544012612880962  0  0  0
         142     1      2.409828572188597   89.753090942467438   41.563497024980315  0  0  0
         143     4      3.253427962753789   87.440396024126983   42.872580104004143  0  0  0
         144     2      3.199740263742588   89.776353477520360   46.876652833640399  0  0  0
         145     3      1.272912347453226   87.444033646012215   48.198613386170962  0  0  0
         146     2      1.209924495759626   89.774544473007353   52.205509914059803  0  0  0
         147     2      2.133115829751289   87.480950151944711   53.509370831420362  0  0  0
         148     3      2.210351056013483   89.786047005180535   49.552161797197222  0  0  0
         149     1      3.128254726967876   87.464750200552032   50.859010842843418  0  0  0
         150     4      2.990984136367715   89.767969486830239   54.832570243594326  0  0  0
         151     2      1.141105502396330   87.485072960896616   56.132991925206547  0  0  0
         152     4      1.013279272940656   89.724460933917953   60.082708583157682  0  0  0
         153     1      1.901340293349077   87.421042711917821   61.410754850518671  0  0  0
         154     2      2.025642031201150   89.727752421116932   57.440653074685940  0  0  0
         155     1      2.921291650380160   87.454021528306626   58.729825828652942  0  0  0
         156     3      2.815211381562910   89.697262594357838   62.729622807162073  0  0  0
         157     4      0.979136809753183   87.415789353031883   64.024785025220353  0  0  0
         158     4      0.874395041565518   89.715292704749416   68.012487349855093  0  0  0
         159     1      1.796679184491423   87.406892879273386   69.279715911294204  0  0  0
         160     3      1.854787962657691   89.697528040772625   65.366489677276476  0  0  0
         161     2      2.797516229987783   87.407317981249150   66.663893153149289  0  0  0
         162     3      2.691769395554271   89.745446250704560   70.609076692381066  0  0  0
         163     4      2.231937056577714   92.044700784602696    0.649100331475691  0  0  0
         164     1      2.161353102889346   94.344592077603352    4.563587936955386  0  0  0
         165     1      3.090382439992636   92.024070264928540    5.932358727563905  0  0  0
         166     4      3.154228831642656   94.355094800273562    1.934428678692528  0  0  0
         167     3      4.057841366081361   92.077668011156661    3.239570811901548  0  0  0
         168     1      4.013715194474822   94.377708190475616    7.279802382145038  0  0  0
         169     1      2.068529870072230   92.056627628291295    8.575406750725309  0  0  0
         170     4      2.012039487401137   94.327862874658010   12.535853258956639  0  0  0
         171     4      2.927768131525347   92.053971922635569   13.854161426278402  0  0  0
         172     2      2.971859064987464   94.354549213942647    9.921391698472844  0  0  0
         173     4      3.874721641729104   92.051337209718113   11.246333047579675  0  0  0
         174     4      3.825868546408513   94.292889884004879   15.175395176893813  0  0  0
         175     3      1.930642022281029   92.043124561692792   16.461087185571387  0  0  0
         176     4      1.840625614407548   94.355180568695886   20.504247510788645  0  0  0
         177     1      2.782117256791264   92.071868880535902   21.772412070744597  0  0  0
         178     1      2.843181022161337   94.358088564040074   17.819571032629355  0  0  0
         179     1      3.764847789020861   92.061002631511300   19.117729992826462  0  0  0
         180     2      3.668295238462751   94.344400312640218   23.093435842354424  0  0  0
         181     1      1.784201572595303   92.071286922467465   24.410866765094649  0  0  0
         182     3      1.715134371318272   94.367835546579073   28.377178851042771  0  0  0
         183     1      2.589439713151590   92.053856590216839   29.707097580798767  0  0  0
         184     4      2.669678230780505   94.342066775369389   25.705083523892348  0  0  0
         185     3      3.600977729223550   92.070744704245584   27.029560659960470  0  0  0
         186     3      3.497791206756851   94.378774540978554   31.045912042029549  0  0  0
         187     1      1.612487094493199   92.099713656286681   32.377869877784192  0  0  0
         188     3      1.555393826674496   94.360959383197226   36.264153551126299  0  0  0
         189     4      2.447764494910506   92.032609384970200   37.609622001772998  0  0  0
         190     2      2.520550537198579   94.393056363457845   33.668866254884293  0  0  0
         191     3      3.420842286953610   92.091388906110723   34.973302370653677  0  0  0
         192     3      3.366749326775628   94.337590742291098   38.894114572400326  0  0  0
         193     3      1.430413008720435   92.070266897194443   40.232731408469355  0  0  0
         194     4      1.363401735602154   94.389186902869000   44.244939877079211  0  0  0
         195     1      2.267917635698340   92.067217479786763   45.546147559742977  0  0  0
         196     3      2.320317104980472   94.367062061594467   41.605105762879013  0  0  0
         197     2      3.264526815139604   92.067071986274044   42.912809942975485  0  0  0
         198     2      3.185336229554426   94.347349666763733   46.884431050862446  0  0  0
         199     3      1.278999433983409   92.067129464723521   48.214122563085510  0  0  0
         200     2      1.220706246001110   94.332097327171539   52.192094019906257  0  0  0
         201     4      2.121791389052066   92.034354555587512   53.479557776588983  0  0  0
         202     3      2.238737592719328   94.350745804647730   49.559254630095673  0  0  0
         203     2      3.120742977402185   92.079053419338067   50.873195592928816  0  0  0
         204     3      3.040196574735364   94.334130813265801   54.823018959161409  0  0  0
         205     3      1.141935102228935   92.042938034920795   56.119408089539974  0  0  0
         206     1      1.060685484664792   94.351328292933118   60.037337194100495  0  0  0
         207     1      1.949757615316607   92.049467478200214   61.408729009415509  0  0  0
         208     2      2.066284254254211   94.357670288122108   57.457232120733160  0  0  0
         209     3      2.957547945214230   92.068823874550134   58.723235703051927  0  0  0
         210     2      2.889671993437108   94.363146708159931   62.680905675036151  0  0  0
         211     4      0.940449874112510   91.996925640357162   64.012300404279799  0  0  0
         212     4      0.901553516496903   94.315969988300452   68.004702820711955  0  0  0
         213     3      1.751452025323603   92.033492975875745   69.320539919182707  0  0  0
         214     1      1.862579657584983   94.342129692239610   65.325968864425107  0  0  0
         215     1      2.786572079225547   92.024631792428707   66.685779614158704  0  0  0
         216     3      2.740213419500641   94.320811196005280   70.662741043477794  0  0  0
         217     4      2.255521249608714   96.604575244850437    0.662904630361193  0  0  0
         218     1      2.156466457618335   98.920895231037235    4.608463388919519  0  0  0
         219     3      3.099168256586011   96.665464278897559    5.944910581339457  0  0  0
         220     3      3.165297534852791   98.877981047655879    1.945663654856628  0  0  0
         221     2      4.074783364184216   96.624691062519915    3.279137038227075  0  0  0
         222     2      4.017072422238808   98.938949084003326    7.246618685570657  0  0  0
         223     2      2.099382216865411   96.638030215910845    8.591315972300109  0  0  0
         224     2      2.014073064341766   98.898875715128028   12.509197087415155  0  0  0
         225     1      2.893310167128885   96.605795265120250   13.867159837251130  0  0  0
         226     3      3.030324732203255   98.921469241589122    9.883994747817763  0  0  0
         227     3      3.911719533424882   96.608461733698405   11.187967856998981  0  0  0
         228     4      3.834616463007119   98.908260611625963   15.171614551847036  0  0  0
         229     2      1.917266038476707   96.592281651517581   16.482040225237743  0  0  0
         230     1      1.837157574147945   98.924352622735526   20.504016757158478  0  0  0
         231     2      2.756378594660932   96.593524189777042   21.785903351488205  0  0  0
         232     1      2.861680724916408   98.907436188825770   17.823905511524053  0  0  0
         233     1      3.734161494350206   96.598070522801251   19.188203334910337  0  0  0
         234     1      3.666994264539487   98.930177438091235   23.127487436716695  0  0  0
         235     3      1.767374774711544   96.624898506138905   24.405292692381352  0  0  0
         236     2      1.699129643613295   98.911780287504556   28.375182079516296  0  0  0
         237     2      2.566148232224610   96.666690314273922   29.729947604786048  0  0  0
         238     4      2.675787565229240   98.914141902728772   25.774511724310937  0  0  0
         239     1      3.572916456736905   96.600067179714586   27.072931302282573  0  0  0
         240     4      3.477091919625382   98.913677338266837   31.070407236521408  0  0  0
         241     4      1.610756602266106   96.641212578506696   32.365076599266168  0  0  0
         242     4      1.492877325407612   98.959843500824746   36.290556355811198  0  0  0
         243     3      2.419456650043477   96.690737253284695   37.611855172549859  0  0  0
         244     2      2.486256300657835   98.937370788802909   33.686017228427367  0  0  0
         245     4      3.400403547303130   96.640945617493927   34.966713238630007  0  0  0
         246     1      3.314065468086413   99.030638207412395   38.944531330800814  0  0  0
         247     4      1.420147401912067   96.680962459131820   40.262635385368021  0  0  0
         248     1      1.359528375869656   98.979770456711762   44.245616379228387  0  0  0
         249     2      2.258075714476858   96.633119045893935   45.547974010940081  0  0  0
         250     3      2.359781909200028   98.999644259132623   41.589565144895317  0  0  0
         251     1      3.269879090015781   96.653467771098406   42.939713413317939  0  0  0
         252     3      3.154027687038262   98.949616440285610   46.882901592627391  0  0  0
         253     3      1.308618940274104   96.670370023601649   48.188722820407264  0  0  0
         254     4      1.210278983876977   98.940745649921695   52.157193752658166  0  0  0
         255     3      2.122582429537350   96.621921529171786   53.445203766614291  0  0  0
         256     4      2.157825468883786   98.942054050491052   49.547369118388836  0  0  0
         257     4      3.129750754261776   96.660502612224789   50.865740299841804  0  0  0
         258     3      3.033132512219931   98.913754783659044   54.787533117059155  0  0  0
         259     3      1.133519924350353   96.586958654493941   56.150635701401960  0  0  0
         260     2      1.071455504408231   98.899800902554418   60.062953746465958  0  0  0
         261     4      1.974979184063521   96.613178766057842   61.380303579939117  0  0  0
         262     1      2.040769645066876   98.912215242037973   57.471937877256494  0  0  0
         263     2      2.942435144262797   96.609723816553426   58.763870111979749  0  0  0
         264     1      2.872394393654681   98.896672273236078   62.681008876301348  0  0  0
         265     2      1.002165642949219   96.615926280719819   64.002857201082975  0  0  0
         266     2      0.921367266680468   98.923176791044298   67.984502086490764  0  0  0
         267     1      1.789233338065315   96.616295020358066   69.307886042568256  0  0  0
         268     1      1.864966672374935   98.887216836791595   65.359783063729964  0  0  0
         269     2      2.794316123140969   96.607888755053125   66.680113901686695  0  0  0
         270     4      2.719036993612185   98.879043103946785   70.626778088741005  0  0  0
         271     3      2.222548955624968  101.223584647504254    0.584813865909273  0  0  0
         272     3      2.165077077647455  103.520148668454311    4.614445416693296  0  0  0
         273     4      3.091741539535213  101.218123416475649    5.954268298537163  0  0  0
         274     3      3.131818599115447  103.507079002503346    1.939233397152843  0  0  0
         275     3      4.082237718552322  101.209404748611064    3.329253545359738  0  0  0
         276     2      3.980295396778637  103.476286315148371    7.260339463584475  0  0  0
         277     1      2.101535524188075  101.224359053293341    8.572849949254486  0  0  0
         278     3      2.034853269319297  103.522247435034927   12.481936794879195  0  0  0
         279     1      2.915075135432441  101.174772577260043   13.819628747779483  0  0  0
         280     4      3.009475361713559  103.507284983324780    9.887915603265411  0  0  0
         281     4      3.936056224439408  101.248018539858649   11.174576011709117  0  0  0
         282     1      3.836996563220134  103.504544345561328   15.150704319001228  0  0  0
         283     1      1.926059073847992  101.204885181176920   16.522179611185020  0  0  0
         284     4      1.878441767092099  103.512090130646470   20.500641792762586  0  0  0
         285     1      2.779300750232623  101.241804812091374   21.766884104049250  0  0  0
         286     3      2.871433679806887  103.494882273967121   17.874605157169938  0  0  0
         287     4      3.764719525518855  101.244346300637545   19.178055916186903  0  0  0
         288     1      3.700182742229986  103.519197857736657   23.105435312732883  0  0  0
         289     3      1.790083383909189  101.219715833868804   24.437980908734634  0  0  0
         290     4      1.677446610182836  103.503686285713314   28.367340056977266  0  0  0
         291     1      2.601209496452177  101.220924955986220   29.715482997691023  0  0  0
         292     1      2.686284427670683  103.566546569772456   25.743696930929794  0  0  0
         293     3      3.592674854618905  101.229992590206706   27.017378318490312  0  0  0
         294     2      3.508460130526459  103.520941836034893   31.059366894211884  0  0  0
         295     1      1.629091546800077  101.236868625895482   32.380025071831632  0  0  0
         296     2      1.495684531292142  103.522364249794521   36.337217296729598  0  0  0
         297     4      2.370349174381981  101.263130970391785   37.629033082047044  0  0  0
         298     2      2.505601768052383  103.542373260791450   33.692217428850853  0  0  0
         299     2      3.402101704230644  101.239391558887036   35.001908134128314  0  0  0
         300     3      3.315672927198654  103.505734498736118   39.000794479988706  0  0  0
         301     4      1.421828019645026  101.285593144154390   40.279616080278849  0  0  0
         302     4      1.348664386832414  103.515391669699270   44.195744120651561  0  0  0
         303     4      2.278685170900219  101.295148916723008   45.545552303353844  0  0  0
         304     2      2.308772869590503  103.549446261034063   41.607168617035988  0  0  0
         305     4      3.214803625990067  101.289213968040286   42.899875723282932  0  0  0
         306     2      3.150379804138897  103.524583013292130   46.880567048414541  0  0  0
         307     4      1.294906009159527  101.239024193196016   48.210879407305441  0  0  0
         308     2      1.181680980669703  103.494306982331480   52.150623301846132  0  0  0
         309     2      2.101385148437050  101.220584889223176   53.489503751104735  0  0  0
         310     2      2.168241664522117  103.530519979305907   49.504766394185452  0  0  0
         311     3      3.065760400084148  101.210177059122429   50.862805613244966  0  0  0
         312     4      3.034965388135422  103.482561392760246   54.809778398758951  0  0  0
         313     2      1.111761899044258  101.200608720767931   56.135299249030503  0  0  0
         314     4      1.037431785168066  103.466244357824237   60.076717662584556  0  0  0
         315     2      1.947207235422769  101.174575721196035   61.369622951837279  0  0  0
         316     1      2.036192385489540  103.455029012354473   57.438918714619625  0  0  0
         317     4      2.941836196939268  101.199577910692497   58.793861738820887  0  0  0